
     Program PWSCF v.6.7MaX starts on 31Aug2025 at 16:50:53 

     This program is part of the open-source Quantum ESPRESSO suite
     for quantum simulation of materials; please cite
         "P. Giannozzi et al., J. Phys.:Condens. Matter 21 395502 (2009);
         "P. Giannozzi et al., J. Phys.:Condens. Matter 29 465901 (2017);
          URL http://www.quantum-espresso.org", 
     in publications or presentations arising from this work. More details at
     http://www.quantum-espresso.org/quote

     Parallel version (MPI), running on    10 processors

     MPI processes distributed on     1 nodes
     R & G space division:  proc/nbgrp/npool/nimage =      10
     Waiting for input...
     Reading input from standard input

     Current dimensions of program PWSCF are:
     Max number of different atomic species (ntypx) = 10
     Max number of k-points (npk) =  40000
     Max angular momentum in pseudopotentials (lmaxx) =  3
     file C.pbe-n-kjpaw_psl.1.0.0.UPF: wavefunction(s)  2S 2P renormalized
     file Fe.pbe-spn-kjpaw_psl.0.2.1.UPF: wavefunction(s)  3D renormalized
     file O.pbe-n-kjpaw_psl.0.1.UPF: wavefunction(s)  2P renormalized

     Subspace diagonalization in iterative solution of the eigenvalue problem:
     one sub-group per band group will be used
     scalapack distributed-memory algorithm (size of sub-group:  3*  3 procs)

     Message from routine setup:
     using ibrav=0 with symmetry is DISCOURAGED, use correct ibrav instead

     Parallelization info
     --------------------
     sticks:   dense  smooth     PW     G-vecs:    dense   smooth      PW
     Min         540     270     68                40206    14205    1778
     Max         541     271     69                40207    14208    1779
     Sum        5405    2703    681               402067   142059   17781



     bravais-lattice index     =            0
     lattice parameter (alat)  =      12.4770  a.u.
     unit-cell volume          =    4157.6892 (a.u.)^3
     number of atoms/cell      =           52
     number of atomic types    =            6
     number of electrons       =       364.00
     number of Kohn-Sham states=          218
     kinetic-energy cutoff     =      40.0000  Ry
     charge density cutoff     =     320.0000  Ry
     scf convergence threshold =      1.0E-06
     mixing beta               =       0.3000
     number of iterations used =            8  plain     mixing
     energy convergence thresh.=      1.0E-04
     force convergence thresh. =      1.0E-03
     Exchange-correlation= PBE
                           (   1   4   3   4   0   0   0)
     nstep                     =           50


     celldm(1)=  12.477013  celldm(2)=   0.000000  celldm(3)=   0.000000
     celldm(4)=   0.000000  celldm(5)=   0.000000  celldm(6)=   0.000000

     crystal axes: (cart. coord. in units of alat)
               a(1) = (   0.999994   0.000000  -0.003391 )  
               a(2) = (  -0.013440   1.361094  -0.023063 )  
               a(3) = (   0.000000   0.000000   1.572658 )  

     reciprocal axes: (cart. coord. in units 2 pi/alat)
               b(1) = (  1.000006  0.009874 -0.000000 )  
               b(2) = ( -0.000000  0.734703  0.000000 )  
               b(3) = (  0.002156  0.010796  0.635866 )  


     PseudoPot. # 1 for C  read from file:
     ../pseudopotentials/C.pbe-n-kjpaw_psl.1.0.0.UPF
     MD5 check sum: 5d2aebdfa2cae82b50a7e79e9516da0f
     Pseudo is Projector augmented-wave + core cor, Zval =  4.0
     Generated using "atomic" code by A. Dal Corso  v.5.1
     Shape of augmentation charge: PSQ
     Using radial grid of 1073 points,  4 beta functions with: 
                l(1) =   0
                l(2) =   0
                l(3) =   1
                l(4) =   1
     Q(r) pseudized with 0 coefficients 


     PseudoPot. # 2 for Fe read from file:
     ../pseudopotentials/Fe.pbe-spn-kjpaw_psl.0.2.1.UPF
     MD5 check sum: e86618425769142926afa95317d90200
     Pseudo is Projector augmented-wave + core cor, Zval = 16.0
     Generated using "atomic" code by A. Dal Corso  v.5.0.99 svn rev. 10869
     Shape of augmentation charge: PSQ
     Using radial grid of 1191 points,  6 beta functions with: 
                l(1) =   0
                l(2) =   0
                l(3) =   1
                l(4) =   1
                l(5) =   2
                l(6) =   2
     Q(r) pseudized with 0 coefficients 


     PseudoPot. # 3 for Li read from file:
     ../pseudopotentials/Li_pbe_v1.5.uspp.F.UPF
     MD5 check sum: e912e257baa3777c20ea3d68f190483c
     Pseudo is Ultrasoft, Zval =  3.0
     Generated by new atomic code, or converted to UPF format
     Using radial grid of  751 points,  5 beta functions with: 
                l(1) =   0
                l(2) =   0
                l(3) =   0
                l(4) =   1
                l(5) =   1
     Q(r) pseudized with 10 coefficients,  rinner =    1.150   1.150   1.150


     PseudoPot. # 4 for Na read from file:
     ../pseudopotentials/na_pbe_v1.5.uspp.F.UPF
     MD5 check sum: 44600605ef58000f06b90626533354dc
     Pseudo is Ultrasoft, Zval =  9.0
     Generated by new atomic code, or converted to UPF format
     Using radial grid of  819 points,  5 beta functions with: 
                l(1) =   0
                l(2) =   0
                l(3) =   1
                l(4) =   1
                l(5) =   2
     Q(r) pseudized with  8 coefficients,  rinner =    1.250   1.250   1.250
                                                       1.250   1.250

     PseudoPot. # 5 for O  read from file:
     ../pseudopotentials/O.pbe-n-kjpaw_psl.0.1.UPF
     MD5 check sum: 0234752ac141de4415c5fc33072bef88
     Pseudo is Projector augmented-wave + core cor, Zval =  6.0
     Generated using "atomic" code by A. Dal Corso  v.5.0.99 svn rev. 10869
     Shape of augmentation charge: BESSEL
     Using radial grid of 1095 points,  4 beta functions with: 
                l(1) =   0
                l(2) =   0
                l(3) =   1
                l(4) =   1
     Q(r) pseudized with 0 coefficients 


     PseudoPot. # 6 for P  read from file:
     ../pseudopotentials/P.pbe-n-rrkjus_psl.1.0.0.UPF
     MD5 check sum: 8b930f418f0a4573dca56cd030ffe088
     Pseudo is Ultrasoft + core correction, Zval =  5.0
     Generated using "atomic" code by A. Dal Corso  v.5.1
     Using radial grid of 1147 points,  6 beta functions with: 
                l(1) =   0
                l(2) =   0
                l(3) =   1
                l(4) =   1
                l(5) =   2
                l(6) =   2
     Q(r) pseudized with 0 coefficients 


     atomic species   valence    mass     pseudopotential
        C              4.00    12.01000     C ( 1.00)
        Fe            16.00    55.84500     Fe( 1.00)
        Li             3.00     6.94100     Li( 1.00)
        Na             9.00    22.99000     Na( 1.00)
        O              6.00    16.00000     O ( 1.00)
        P              5.00    30.97000     P ( 1.00)

      2 Sym. Ops., with inversion, found



   Cartesian axes

     site n.     atom                  positions (alat units)
         1           Na  tau(   1) = (   0.2337587   1.2488871   0.9679357  )
         2           Na  tau(   2) = (   0.2362844   1.2479125   0.1840066  )
         3           Na  tau(   3) = (   0.4887081   1.0071704   0.5698546  )
         4           Na  tau(   4) = (  -0.0088737   1.0065184   1.3584860  )
         5           Na  tau(   5) = (   0.4893469   1.0057629   1.3561505  )
         6           Na  tau(   6) = (   0.4978464   0.3539240   0.9763499  )
         7           Na  tau(   7) = (   0.4972075   0.3553314   0.1900540  )
         8           Na  tau(   8) = (   0.9954281   0.3545760   0.1877185  )
         9           Na  tau(   9) = (   0.7527957   0.1122072   0.5782688  )
        10           Na  tau(  10) = (   0.7502702   0.1131819   1.3621980  )
        11           Li  tau(  11) = (  -0.0058020   0.9959264   0.5690646  )
        12           Li  tau(  12) = (   0.9923575   0.3651680   0.9771399  )
        13           Fe  tau(  13) = (   0.7414249   0.8771055   0.9909485  )
        14           Fe  tau(  14) = (   0.7432659   0.8778215   0.2086804  )
        15           Fe  tau(  15) = (   0.2451295   0.4839888   0.5552561  )
        16           Fe  tau(  16) = (   0.2432887   0.4832729   1.3375242  )
        17           P   tau(  17) = (   0.2354558   0.7965900   0.9265657  )
        18           P   tau(  18) = (   0.2419978   0.7982110   0.1451045  )
        19           P   tau(  19) = (   0.7510986   0.5645044   0.6196388  )
        20           P   tau(  20) = (   0.7445566   0.5628833   1.4011000  )
        21           C   tau(  21) = (   0.7444504   1.2830479   0.9435706  )
        22           C   tau(  22) = (   0.7380775   1.2790053   0.1591120  )
        23           C   tau(  23) = (   0.2421040   0.0780465   0.6026339  )
        24           C   tau(  24) = (   0.2484770   0.0820890   1.3870925  )
        25           O   tau(  25) = (   0.2225802   1.2423688   0.5937538  )
        26           O   tau(  26) = (   0.2392651   1.2476281   1.3796683  )
        27           O   tau(  27) = (   0.7383628   1.1964279   1.1205454  )
        28           O   tau(  28) = (   0.7400921   1.1935708   0.3371557  )
        29           O   tau(  29) = (   0.7435673   1.1701518   0.7818364  )
        30           O   tau(  30) = (   0.7403214   1.1660931  -0.0020665  )
        31           O   tau(  31) = (   0.0522180   0.9283357   0.9961682  )
        32           O   tau(  32) = (   0.4277768   0.9194287   0.9904473  )
        33           O   tau(  33) = (   0.0551643   0.9275000   0.2125229  )
        34           O   tau(  34) = (   0.4309230   0.9271039   0.2061491  )
        35           O   tau(  35) = (   0.2307941   0.7781282   0.6908012  )
        36           O   tau(  36) = (   0.7562291   0.7781430   0.5224794  )
        37           O   tau(  37) = (   0.2395906   0.7718003   1.4831243  )
        38           O   tau(  38) = (   0.7423378   0.7720999   1.2981997  )
        39           O   tau(  39) = (   0.2303254   0.5829512   1.0237252  )
        40           O   tau(  40) = (   0.7557603   0.5829662   0.8554033  )
        41           O   tau(  41) = (   0.2442167   0.5889945   0.2480049  )
        42           O   tau(  42) = (   0.7469639   0.5892939   0.0630803  )
        43           O   tau(  43) = (   0.5587777   0.4416657   0.5557572  )
        44           O   tau(  44) = (   0.9343364   0.4327586   0.5500365  )
        45           O   tau(  45) = (   0.5556315   0.4339904   1.3400555  )
        46           O   tau(  46) = (   0.9313902   0.4335942   1.3336816  )
        47           O   tau(  47) = (   0.2429871   0.1909424   0.7643682  )
        48           O   tau(  48) = (   0.2462330   0.1950013   1.5482710  )
        49           O   tau(  49) = (   0.2481916   0.1646665   0.4256591  )
        50           O   tau(  50) = (   0.2464625   0.1675234   1.2090488  )
        51           O   tau(  51) = (   0.7639743   0.1187255   0.9524507  )
        52           O   tau(  52) = (   0.7472893   0.1134663   0.1665362  )

     number of k points=     1  Gaussian smearing, width (Ry)=  0.0200
                       cart. coord. in units 2pi/alat
        k(    1) = (   0.0000000   0.0000000   0.0000000), wk =   2.0000000

     Dense  grid:   402067 G-vectors     FFT dimensions: (  72, 100, 120)

     Smooth grid:   142059 G-vectors     FFT dimensions: (  54,  72,  80)

     Estimated max dynamical RAM per process >     222.80 MB

     Estimated total dynamical RAM >       2.18 GB

     Check: negative core charge=   -0.000061

     Initial potential from superposition of free atoms

     starting charge  363.03301, renormalised to  364.00000
     Starting wfcs are  256 randomized atomic wfcs
     Checking if some PAW data can be deallocated... 

     total cpu time spent up to now is       10.4 secs

     Self-consistent Calculation

     iteration #  1     ecut=    40.00 Ry     beta= 0.30
     Davidson diagonalization with overlap
     ethr =  1.00E-02,  avg # of iterations =  3.0

     total cpu time spent up to now is       15.0 secs

     total energy              =   -3594.02150792 Ry
     estimated scf accuracy    <      14.44410923 Ry

     iteration #  2     ecut=    40.00 Ry     beta= 0.30
     Davidson diagonalization with overlap
     ethr =  3.97E-03,  avg # of iterations =  3.0

     total cpu time spent up to now is       19.5 secs

     total energy              =   -3595.66330612 Ry
     estimated scf accuracy    <     101.57610783 Ry

     iteration #  3     ecut=    40.00 Ry     beta= 0.30
     Davidson diagonalization with overlap
     ethr =  3.97E-03,  avg # of iterations =  2.0

     total cpu time spent up to now is       23.6 secs

     total energy              =   -3597.36943630 Ry
     estimated scf accuracy    <       4.00002087 Ry

     iteration #  4     ecut=    40.00 Ry     beta= 0.30
     Davidson diagonalization with overlap
     ethr =  1.10E-03,  avg # of iterations =  3.0

     total cpu time spent up to now is       27.8 secs

     total energy              =   -3596.01931557 Ry
     estimated scf accuracy    <      38.43096048 Ry

     iteration #  5     ecut=    40.00 Ry     beta= 0.30
     Davidson diagonalization with overlap
     ethr =  1.10E-03,  avg # of iterations =  2.0

     total cpu time spent up to now is       32.0 secs

     total energy              =   -3597.25144920 Ry
     estimated scf accuracy    <      43.28746932 Ry

     iteration #  6     ecut=    40.00 Ry     beta= 0.30
     Davidson diagonalization with overlap
     ethr =  1.10E-03,  avg # of iterations =  2.0

     total cpu time spent up to now is       36.3 secs

     total energy              =   -3598.19024164 Ry
     estimated scf accuracy    <       6.30215917 Ry

     iteration #  7     ecut=    40.00 Ry     beta= 0.30
     Davidson diagonalization with overlap
     ethr =  1.10E-03,  avg # of iterations =  1.0

     total cpu time spent up to now is       40.4 secs

     total energy              =   -3598.05296329 Ry
     estimated scf accuracy    <       7.67408422 Ry

     iteration #  8     ecut=    40.00 Ry     beta= 0.30
     Davidson diagonalization with overlap
     ethr =  1.10E-03,  avg # of iterations =  1.0

     total cpu time spent up to now is       44.4 secs

     total energy              =   -3598.12725823 Ry
     estimated scf accuracy    <       0.25494303 Ry

     iteration #  9     ecut=    40.00 Ry     beta= 0.30
     Davidson diagonalization with overlap
     ethr =  7.00E-05,  avg # of iterations = 17.0

     total cpu time spent up to now is       49.4 secs

     total energy              =   -3598.07783438 Ry
     estimated scf accuracy    <       0.24684124 Ry

     iteration # 10     ecut=    40.00 Ry     beta= 0.30
     Davidson diagonalization with overlap
     ethr =  6.78E-05,  avg # of iterations =  1.0

     total cpu time spent up to now is       53.2 secs

     total energy              =   -3598.05209892 Ry
     estimated scf accuracy    <       0.22434658 Ry

     iteration # 11     ecut=    40.00 Ry     beta= 0.30
     Davidson diagonalization with overlap
     ethr =  6.16E-05,  avg # of iterations =  1.0

     total cpu time spent up to now is       57.1 secs

     total energy              =   -3598.01411391 Ry
     estimated scf accuracy    <       0.26986021 Ry

     iteration # 12     ecut=    40.00 Ry     beta= 0.30
     Davidson diagonalization with overlap
     ethr =  6.16E-05,  avg # of iterations =  1.0

     total cpu time spent up to now is       60.9 secs

     total energy              =   -3598.09470581 Ry
     estimated scf accuracy    <       0.74577700 Ry

     iteration # 13     ecut=    40.00 Ry     beta= 0.30
     Davidson diagonalization with overlap
     ethr =  6.16E-05,  avg # of iterations =  1.0

     total cpu time spent up to now is       65.2 secs

     total energy              =   -3598.10298600 Ry
     estimated scf accuracy    <       3.76024537 Ry

     iteration # 14     ecut=    40.00 Ry     beta= 0.30
     Davidson diagonalization with overlap
     ethr =  6.16E-05,  avg # of iterations =  1.0

     total cpu time spent up to now is       69.1 secs

     total energy              =   -3598.14446421 Ry
     estimated scf accuracy    <       0.40806952 Ry

     iteration # 15     ecut=    40.00 Ry     beta= 0.30
     Davidson diagonalization with overlap
     ethr =  6.16E-05,  avg # of iterations =  1.0

     total cpu time spent up to now is       72.8 secs

     total energy              =   -3598.13255540 Ry
     estimated scf accuracy    <       0.65177152 Ry

     iteration # 16     ecut=    40.00 Ry     beta= 0.30
     Davidson diagonalization with overlap
     ethr =  6.16E-05,  avg # of iterations =  1.0

     total cpu time spent up to now is       76.6 secs

     total energy              =   -3598.14385366 Ry
     estimated scf accuracy    <       0.52732843 Ry

     iteration # 17     ecut=    40.00 Ry     beta= 0.30
     Davidson diagonalization with overlap
     ethr =  6.16E-05,  avg # of iterations =  1.0

     total cpu time spent up to now is       80.4 secs

     total energy              =   -3598.14758825 Ry
     estimated scf accuracy    <       0.23417932 Ry

     iteration # 18     ecut=    40.00 Ry     beta= 0.30
     Davidson diagonalization with overlap
     ethr =  6.16E-05,  avg # of iterations =  1.0

     total cpu time spent up to now is       84.1 secs

     total energy              =   -3598.15683048 Ry
     estimated scf accuracy    <       0.01086862 Ry

     iteration # 19     ecut=    40.00 Ry     beta= 0.30
     Davidson diagonalization with overlap
     ethr =  2.99E-06,  avg # of iterations = 14.0

     total cpu time spent up to now is       89.0 secs

     total energy              =   -3598.15893723 Ry
     estimated scf accuracy    <       0.03106997 Ry

     iteration # 20     ecut=    40.00 Ry     beta= 0.30
     Davidson diagonalization with overlap
     ethr =  2.99E-06,  avg # of iterations =  1.0

     total cpu time spent up to now is       92.7 secs

     total energy              =   -3598.15903063 Ry
     estimated scf accuracy    <       0.01498446 Ry

     iteration # 21     ecut=    40.00 Ry     beta= 0.30
     Davidson diagonalization with overlap
     ethr =  2.99E-06,  avg # of iterations =  1.0

     total cpu time spent up to now is       96.5 secs

     total energy              =   -3598.15882893 Ry
     estimated scf accuracy    <       0.00840288 Ry

     iteration # 22     ecut=    40.00 Ry     beta= 0.30
     Davidson diagonalization with overlap
     ethr =  2.31E-06,  avg # of iterations =  1.0

     total cpu time spent up to now is      100.9 secs

     total energy              =   -3598.15870815 Ry
     estimated scf accuracy    <       0.00330651 Ry

     iteration # 23     ecut=    40.00 Ry     beta= 0.30
     Davidson diagonalization with overlap
     ethr =  9.08E-07,  avg # of iterations =  1.0

     total cpu time spent up to now is      105.7 secs

     total energy              =   -3598.15888036 Ry
     estimated scf accuracy    <       0.00023293 Ry

     iteration # 24     ecut=    40.00 Ry     beta= 0.30
     Davidson diagonalization with overlap
     ethr =  6.40E-08,  avg # of iterations =  1.0

     total cpu time spent up to now is      110.5 secs

     total energy              =   -3598.15896053 Ry
     estimated scf accuracy    <       0.00002459 Ry

     iteration # 25     ecut=    40.00 Ry     beta= 0.30
     Davidson diagonalization with overlap
     ethr =  6.76E-09,  avg # of iterations =  5.0

     total cpu time spent up to now is      116.6 secs

     total energy              =   -3598.15899651 Ry
     estimated scf accuracy    <       0.00000264 Ry

     iteration # 26     ecut=    40.00 Ry     beta= 0.30
     Davidson diagonalization with overlap
     ethr =  7.25E-10,  avg # of iterations =  5.0

     total cpu time spent up to now is      123.2 secs

     End of self-consistent calculation

          k = 0.0000 0.0000 0.0000 ( 17781 PWs)   bands (ev):

   -80.3612 -80.3612 -80.3484 -80.3484 -46.4147 -46.4127 -46.4040 -46.4009
   -46.3990 -46.3974 -46.3736 -46.3734 -46.2876 -46.2860 -46.2852 -46.2820
   -45.6646 -45.6645 -45.6335 -45.6334 -45.0229 -45.0229 -44.9837 -44.9837
   -44.9452 -44.9452 -39.8305 -39.8305 -17.8488 -17.8433 -17.7577 -17.7404
   -17.6367 -17.6354 -17.6067 -17.6052 -17.5850 -17.5804 -17.5751 -17.5731
   -17.4683 -17.4606 -17.3494 -17.3471 -16.9958 -16.9929 -16.9829 -16.9726
   -16.9695 -16.9618 -16.9535 -16.9454 -16.9453 -16.9359 -16.9198 -16.9115
   -16.8960 -16.8902 -16.8827 -16.8754 -16.8651 -16.8633 -15.8290 -15.7443
   -15.7021 -15.6795 -14.5438 -14.5239 -14.5166 -14.4787 -14.4640 -14.4561
   -14.4111 -14.3826 -13.4750 -13.4568 -13.4325 -13.3780 -13.3296 -13.2887
   -13.2862 -13.2489 -13.1000 -13.0789 -13.0753 -13.0717  -3.8748  -3.6624
    -3.4582  -3.3881  -3.2510  -3.1148  -3.0265  -2.9651  -2.1709  -2.0690
    -2.0227  -1.9197  -1.9050  -1.7543  -1.7011  -1.7005  -1.6699  -1.6411
    -1.6137  -1.4267  -1.3645  -1.2403  -0.9565  -0.8174  -0.7903  -0.7742
    -0.6730  -0.5862  -0.5176  -0.3691  -0.2980  -0.1652   0.8134   0.9226
     1.0707   1.2405   1.2999   1.3291   1.3319   1.4018   1.4207   1.4984
     1.5946   1.6594   1.6973   1.7437   1.7554   1.8227   1.8428   1.8602
     2.0330   2.0484   2.0706   2.1175   2.2154   2.2310   2.3086   2.3456
     2.3706   2.4364   2.4483   2.4560   2.5403   2.6081   2.6198   2.6790
     2.7407   2.7468   3.0381   3.1186   3.1963   3.2080   3.2350   3.2611
     3.3558   3.3645   3.4037   3.5033   3.6169   3.6879   3.7093   3.8290
     3.8611   3.8674   5.8150   5.8209   5.9258   5.9323   5.9333   5.9535
     5.9851   6.0273   6.0400   6.1064   6.1491   6.1546   6.7804   6.8625
     6.9689   6.9883   7.0164   7.1024   7.2291   7.2617   8.5195   9.3724
     9.6287   9.7309   9.7947  10.1718  10.3949  10.4526  11.7331  11.7399
    12.0977  12.1619  12.2413  12.3076  12.7353  12.7928  12.8917  12.9321
    12.9668  13.0341  13.0889  13.2852  13.3992  13.5198  13.5246  13.6257
    13.7174  13.8339

     the Fermi energy is     6.4990 ev

!    total energy              =   -3598.15904995 Ry
     estimated scf accuracy    <       0.00000028 Ry
     smearing contrib. (-TS)   =      -0.01523097 Ry
     internal energy E=F+TS    =   -3598.14381898 Ry

     The total energy is F=E-TS. E is the sum of the following terms:
     one-electron contribution =   -1909.07392522 Ry
     hartree contribution      =    1116.75799452 Ry
     xc contribution           =    -536.86549587 Ry
     ewald contribution        =   -1673.54208273 Ry
     one-center paw contrib.   =    -595.42030968 Ry

     convergence has been achieved in  26 iterations

     Forces acting on atoms (cartesian axes, Ry/au):

     atom    1 type  4   force =    -0.00216574   -0.00566114   -0.00029675
     atom    2 type  4   force =    -0.00052008   -0.00581626    0.00063401
     atom    3 type  4   force =    -0.00026656   -0.00742073   -0.00100381
     atom    4 type  4   force =     0.00038548   -0.00755807   -0.00161503
     atom    5 type  4   force =    -0.00052850   -0.00805489   -0.00167669
     atom    6 type  4   force =     0.00026656    0.00742073    0.00100381
     atom    7 type  4   force =     0.00052850    0.00805489    0.00167669
     atom    8 type  4   force =    -0.00038548    0.00755807    0.00161503
     atom    9 type  4   force =     0.00216574    0.00566114    0.00029675
     atom   10 type  4   force =     0.00052008    0.00581626   -0.00063401
     atom   11 type  3   force =     0.00218304   -0.01200833   -0.00334854
     atom   12 type  3   force =    -0.00218304    0.01200833    0.00334854
     atom   13 type  2   force =     0.00800713    0.02344540    0.02140835
     atom   14 type  2   force =     0.01352473    0.02958627    0.01654575
     atom   15 type  2   force =    -0.00800713   -0.02344540   -0.02140835
     atom   16 type  2   force =    -0.01352473   -0.02958627   -0.01654575
     atom   17 type  6   force =     0.00455756    0.01277772    0.01574413
     atom   18 type  6   force =     0.00276245    0.01334943    0.01638653
     atom   19 type  6   force =    -0.00455756   -0.01277772   -0.01574413
     atom   20 type  6   force =    -0.00276245   -0.01334943   -0.01638653
     atom   21 type  1   force =     0.00233040    0.01297777   -0.01111400
     atom   22 type  1   force =    -0.00046272    0.00994924   -0.00249018
     atom   23 type  1   force =    -0.00233040   -0.01297777    0.01111400
     atom   24 type  1   force =     0.00046272   -0.00994924    0.00249018
     atom   25 type  5   force =    -0.00463097    0.01943567   -0.00230484
     atom   26 type  5   force =     0.00065522    0.02123068   -0.00138648
     atom   27 type  5   force =     0.00003210   -0.02915913   -0.01472324
     atom   28 type  5   force =     0.00074943   -0.02963433   -0.01997591
     atom   29 type  5   force =     0.00086332   -0.00889584    0.01413065
     atom   30 type  5   force =     0.00096370   -0.01363231    0.01357733
     atom   31 type  5   force =    -0.01499685    0.00238664    0.00030615
     atom   32 type  5   force =     0.00642911   -0.00529814   -0.00521213
     atom   33 type  5   force =    -0.01202035    0.00021511    0.00225208
     atom   34 type  5   force =     0.01037755    0.00061665   -0.00399934
     atom   35 type  5   force =    -0.00501659   -0.02655071   -0.01971595
     atom   36 type  5   force =     0.00411658    0.02687202   -0.02686412
     atom   37 type  5   force =    -0.00141466   -0.02705056   -0.01734973
     atom   38 type  5   force =    -0.00095155    0.02749605   -0.03368253
     atom   39 type  5   force =    -0.00411658   -0.02687202    0.02686412
     atom   40 type  5   force =     0.00501659    0.02655071    0.01971595
     atom   41 type  5   force =     0.00095155   -0.02749605    0.03368253
     atom   42 type  5   force =     0.00141466    0.02705056    0.01734973
     atom   43 type  5   force =    -0.00642911    0.00529814    0.00521213
     atom   44 type  5   force =     0.01499685   -0.00238664   -0.00030615
     atom   45 type  5   force =    -0.01037755   -0.00061665    0.00399934
     atom   46 type  5   force =     0.01202035   -0.00021511   -0.00225208
     atom   47 type  5   force =    -0.00086332    0.00889584   -0.01413065
     atom   48 type  5   force =    -0.00096370    0.01363231   -0.01357733
     atom   49 type  5   force =    -0.00003210    0.02915913    0.01472324
     atom   50 type  5   force =    -0.00074943    0.02963433    0.01997591
     atom   51 type  5   force =     0.00463097   -0.01943567    0.00230484
     atom   52 type  5   force =    -0.00065522   -0.02123068    0.00138648

     Total force =     0.167741     Total SCF correction =     0.000737


     Computing stress (Cartesian axis) and pressure

          total   stress  (Ry/bohr**3)                   (kbar)     P=      -77.11
  -0.00038286  -0.00001019  -0.00000319          -56.32       -1.50       -0.47
  -0.00001019  -0.00065677  -0.00004365           -1.50      -96.61       -6.42
  -0.00000319  -0.00004365  -0.00053281           -0.47       -6.42      -78.38


     BFGS Geometry Optimization
     Energy error            =      0.0E+00
     Gradient error          =      3.4E-02

     number of scf cycles    =   1
     number of bfgs steps    =   0

     energy   new            =   -3598.1590499504 Ry

     new trust radius        =       0.0434908169 bohr
     new conv_thr            =       0.0000010000 Ry


ATOMIC_POSITIONS (angstrom)
Na            1.5422579421        8.2428452541        6.3906879647
Na            1.5598047858        8.2363281693        1.2152485060
Na            3.2265789441        6.6459671171        3.7619628075
Na           -0.0583850153        6.6415894421        8.9686183614
Na            3.2306583290        6.6363385346        8.9531657320
Na            3.2871970559        2.3407278829        6.4469311925
Na            3.2831176710        2.3503564654        1.2557282680
Na            6.5721610153        2.3451055579        1.2402756386
Na            4.9715180579        0.7438497459        3.8182060353
Na            4.9539722142        0.7503668307        8.9936464940
Li           -0.0371527852        6.5693004680        3.7555060274
Li            6.5509357852        2.4173945320        6.4533879726
Fe            4.8995331909        5.8035407699        6.5541168103
Fe            4.9146079809        5.8115173791        1.3865786328
Fe            1.6142428091        3.1831542301        3.6547781897
Fe            1.5991690191        3.1751776209        8.8223163672
P             1.5570207559        5.2662876772        6.1260284353
P             1.5992648236        5.2772932145        0.9667313761
P             4.9567552441        3.7204073228        4.0828655647
P             4.9145111764        3.7094017855        9.2421626239
C             4.9165051950        8.4782565406        6.2240917257
C             4.8729491400        8.4499629115        1.0492272519
C             1.5972708050        0.5084384594        3.9848022743
C             1.6408268600        0.5367320885        9.1596667481
O             1.4671463952        8.2130879159        3.9190703310
O             1.5801067250        8.2487627895        9.1085963085
O             4.8750949887        7.8840456547        7.3906667965
O             4.8868925802        7.8649301878        2.2155172038
O             4.9098978489        7.7212795237        5.1695926157
O             4.8885199671        7.6919750933       -0.0064591880
O             0.3368360072        6.1306469569        6.5774130099
O             2.8278201379        6.0677713424        6.5367208575
O             0.3578641044        6.1239798325        1.4043847508
O             2.8506825618        6.1215773155        1.3589936414
O             1.5211753323        5.1235809670        4.5506167697
O             4.9952193986        5.1519490627        3.4354811201
O             1.5811603960        5.0815364606        9.7832229168
O             4.9008194603        5.1123792820        8.5536059710
O             1.5185566014        3.8347449373        6.7734138799
O             4.9926006677        3.8631140330        5.6582772303
O             1.6129565397        3.8743157180        1.6552890290
O             4.9326156040        3.9051575394        0.4256720832
O             3.6859558621        2.9189236576        3.6721731425
O             6.1769399928        2.8560480431        3.6314819901
O             3.6630934382        2.8651176845        8.8499013586
O             6.1559118956        2.8627141675        8.8045092492
O             1.6038781511        1.2654144763        5.0393023843
O             1.6252560329        1.2947199067       10.2153531880
O             1.6386810113        1.1026493453        2.8182272035
O             1.6268844198        1.1217638122        7.9933767962
O             5.0466296048        0.7736060841        6.2898236690
O             4.9336692750        0.7379322105        1.1002976915



     Writing output data file ./tmp_system1/system1.save/
     NEW-OLD atomic charge density approx. for the potential

     Check: negative core charge=   -0.000061

     total cpu time spent up to now is      158.5 secs

     Self-consistent Calculation

     iteration #  1     ecut=    40.00 Ry     beta= 0.30
     Davidson diagonalization with overlap
     c_bands:  1 eigenvalues not converged
     ethr =  1.00E-06,  avg # of iterations = 20.0

     total cpu time spent up to now is      178.9 secs

     total energy              =   -3598.17040460 Ry
     estimated scf accuracy    <       0.01712308 Ry

     iteration #  2     ecut=    40.00 Ry     beta= 0.30
     Davidson diagonalization with overlap
     ethr =  4.70E-06,  avg # of iterations =  7.0

     total cpu time spent up to now is      188.0 secs

     total energy              =   -3598.17419138 Ry
     estimated scf accuracy    <       0.00609960 Ry

     iteration #  3     ecut=    40.00 Ry     beta= 0.30
     Davidson diagonalization with overlap
     ethr =  1.68E-06,  avg # of iterations =  2.0

     total cpu time spent up to now is      197.5 secs

     total energy              =   -3598.17527692 Ry
     estimated scf accuracy    <       0.00352294 Ry

     iteration #  4     ecut=    40.00 Ry     beta= 0.30
     Davidson diagonalization with overlap
     ethr =  9.68E-07,  avg # of iterations =  2.0

     total cpu time spent up to now is      206.6 secs

     total energy              =   -3598.17522138 Ry
     estimated scf accuracy    <       0.02661253 Ry

     iteration #  5     ecut=    40.00 Ry     beta= 0.30
     Davidson diagonalization with overlap
     ethr =  9.68E-07,  avg # of iterations =  2.0

     total cpu time spent up to now is      215.0 secs

     total energy              =   -3598.17645630 Ry
     estimated scf accuracy    <       0.00032348 Ry

     iteration #  6     ecut=    40.00 Ry     beta= 0.30
     Davidson diagonalization with overlap
     ethr =  8.89E-08,  avg # of iterations =  2.0

     total cpu time spent up to now is      222.9 secs

     total energy              =   -3598.17682816 Ry
     estimated scf accuracy    <       0.00002977 Ry

     iteration #  7     ecut=    40.00 Ry     beta= 0.30
     Davidson diagonalization with overlap
     ethr =  8.18E-09,  avg # of iterations =  5.0

     total cpu time spent up to now is      232.3 secs

     total energy              =   -3598.17727164 Ry
     estimated scf accuracy    <       0.00000361 Ry

     iteration #  8     ecut=    40.00 Ry     beta= 0.30
     Davidson diagonalization with overlap
     ethr =  9.91E-10,  avg # of iterations =  2.0

     total cpu time spent up to now is      241.1 secs

     End of self-consistent calculation

          k = 0.0000 0.0000 0.0000 ( 17781 PWs)   bands (ev):

   -80.2577 -80.2577 -80.2471 -80.2471 -46.3121 -46.3108 -46.3019 -46.2993
   -46.2959 -46.2947 -46.2756 -46.2747 -46.1864 -46.1863 -46.1835 -46.1809
   -45.7252 -45.7252 -45.7090 -45.7090 -45.0312 -45.0312 -44.9787 -44.9787
   -44.9361 -44.9360 -39.8151 -39.8151 -17.9299 -17.9231 -17.8268 -17.8074
   -17.6959 -17.6947 -17.6802 -17.6786 -17.6533 -17.6491 -17.6394 -17.6380
   -17.5476 -17.5393 -17.4242 -17.4213 -16.9961 -16.9912 -16.9856 -16.9795
   -16.9749 -16.9646 -16.9610 -16.9501 -16.9386 -16.9311 -16.9182 -16.9086
   -16.8878 -16.8834 -16.8737 -16.8678 -16.8572 -16.8556 -15.7185 -15.6283
   -15.5935 -15.5664 -14.7065 -14.6838 -14.6293 -14.6126 -14.4548 -14.4464
   -14.3674 -14.3566 -13.3856 -13.3560 -13.2885 -13.2775 -13.2339 -13.1695
   -13.1492 -13.1480 -13.1395 -13.1384 -13.1269 -13.1044  -3.8838  -3.6521
    -3.4957  -3.4119  -3.2624  -3.1326  -3.0567  -2.9996  -2.1836  -2.0837
    -2.0662  -1.9756  -1.9599  -1.7882  -1.7393  -1.7371  -1.7314  -1.6813
    -1.6756  -1.4826  -1.3330  -1.2389  -0.9245  -0.7857  -0.7643  -0.7275
    -0.6476  -0.5270  -0.4859  -0.3115  -0.3101  -0.1768   0.8930   0.9791
     1.1029   1.2618   1.3190   1.3330   1.3391   1.4257   1.4353   1.5496
     1.5926   1.6711   1.7073   1.7383   1.7529   1.8286   1.8686   1.9222
     2.0371   2.0421   2.0708   2.1507   2.2378   2.2581   2.3293   2.3769
     2.4272   2.4559   2.4729   2.4770   2.5532   2.6154   2.6544   2.6627
     2.6905   2.7110   3.0118   3.1366   3.1789   3.1906   3.2372   3.2488
     3.3482   3.3696   3.3911   3.5025   3.6044   3.6869   3.6893   3.8338
     3.8727   3.8958   5.9126   5.9193   6.0242   6.0376   6.0378   6.0507
     6.0795   6.1239   6.1340   6.2027   6.2455   6.2528   6.9228   7.0060
     7.1022   7.1046   7.1350   7.2429   7.3565   7.3893   8.4936   9.4173
     9.6915   9.7820   9.8446  10.1475  10.3536  10.4618  11.6717  11.7727
    12.1730  12.1912  12.2059  12.2752  12.6792  12.7877  12.8355  12.8445
    12.9270  12.9651  13.0291  13.1794  13.3407  13.4809  13.4946  13.5815
    13.6990  13.7689

     the Fermi energy is     6.6160 ev

!    total energy              =   -3598.17773637 Ry
     estimated scf accuracy    <       0.00000063 Ry
     smearing contrib. (-TS)   =      -0.01235718 Ry
     internal energy E=F+TS    =   -3598.16537919 Ry

     The total energy is F=E-TS. E is the sum of the following terms:
     one-electron contribution =   -1915.76160220 Ry
     hartree contribution      =    1120.25461829 Ry
     xc contribution           =    -536.82597570 Ry
     ewald contribution        =   -1670.40720472 Ry
     one-center paw contrib.   =    -595.42521485 Ry

     convergence has been achieved in   8 iterations

     Forces acting on atoms (cartesian axes, Ry/au):

     atom    1 type  4   force =    -0.00230579   -0.00362736    0.00071684
     atom    2 type  4   force =    -0.00055560   -0.00337994    0.00147039
     atom    3 type  4   force =     0.00002503   -0.00807172   -0.00033045
     atom    4 type  4   force =     0.00049528   -0.00750995   -0.00083343
     atom    5 type  4   force =    -0.00045681   -0.00813444   -0.00078187
     atom    6 type  4   force =    -0.00002503    0.00807172    0.00033045
     atom    7 type  4   force =     0.00045681    0.00813444    0.00078187
     atom    8 type  4   force =    -0.00049528    0.00750995    0.00083343
     atom    9 type  4   force =     0.00230579    0.00362736   -0.00071684
     atom   10 type  4   force =     0.00055560    0.00337994   -0.00147039
     atom   11 type  3   force =     0.00111743   -0.01388487   -0.00300054
     atom   12 type  3   force =    -0.00111743    0.01388487    0.00300054
     atom   13 type  2   force =     0.01063049    0.02711861    0.01995317
     atom   14 type  2   force =     0.01319720    0.02867518    0.01477583
     atom   15 type  2   force =    -0.01063049   -0.02711861   -0.01995317
     atom   16 type  2   force =    -0.01319720   -0.02867518   -0.01477583
     atom   17 type  6   force =    -0.00634265   -0.02243315   -0.00292551
     atom   18 type  6   force =     0.00005190   -0.02454242    0.00085589
     atom   19 type  6   force =     0.00634265    0.02243315    0.00292551
     atom   20 type  6   force =    -0.00005190    0.02454242   -0.00085589
     atom   21 type  1   force =     0.00105234   -0.02242626    0.00492327
     atom   22 type  1   force =     0.00032501   -0.02421995   -0.00161301
     atom   23 type  1   force =    -0.00105234    0.02242626   -0.00492327
     atom   24 type  1   force =    -0.00032501    0.02421995    0.00161301
     atom   25 type  5   force =    -0.00468669   -0.00786527   -0.00096045
     atom   26 type  5   force =     0.00129340   -0.00709265   -0.00100261
     atom   27 type  5   force =     0.00018785   -0.01821859   -0.01313984
     atom   28 type  5   force =     0.00086604   -0.02223002   -0.00878686
     atom   29 type  5   force =     0.00082024   -0.00876913   -0.00113239
     atom   30 type  5   force =     0.00116680   -0.01139534    0.00322556
     atom   31 type  5   force =    -0.00212715    0.00147923   -0.00055410
     atom   32 type  5   force =     0.00304281   -0.00159559   -0.00350296
     atom   33 type  5   force =    -0.00115593    0.00056823    0.00222061
     atom   34 type  5   force =     0.00299469    0.00190730   -0.00333616
     atom   35 type  5   force =    -0.00396106   -0.01901687    0.00891604
     atom   36 type  5   force =     0.00341537   -0.00196716   -0.01460052
     atom   37 type  5   force =    -0.00124554   -0.01935008    0.01195478
     atom   38 type  5   force =    -0.00084952   -0.00592671   -0.01749365
     atom   39 type  5   force =    -0.00341537    0.00196716    0.01460052
     atom   40 type  5   force =     0.00396106    0.01901687   -0.00891604
     atom   41 type  5   force =     0.00084952    0.00592671    0.01749365
     atom   42 type  5   force =     0.00124554    0.01935008   -0.01195478
     atom   43 type  5   force =    -0.00304281    0.00159559    0.00350296
     atom   44 type  5   force =     0.00212715   -0.00147923    0.00055410
     atom   45 type  5   force =    -0.00299469   -0.00190730    0.00333616
     atom   46 type  5   force =     0.00115593   -0.00056823   -0.00222061
     atom   47 type  5   force =    -0.00082024    0.00876913    0.00113239
     atom   48 type  5   force =    -0.00116680    0.01139534   -0.00322556
     atom   49 type  5   force =    -0.00018785    0.01821859    0.01313984
     atom   50 type  5   force =    -0.00086604    0.02223002    0.00878686
     atom   51 type  5   force =     0.00468669    0.00786527    0.00096045
     atom   52 type  5   force =    -0.00129340    0.00709265    0.00100261

     Total force =     0.128080     Total SCF correction =     0.002223


     Computing stress (Cartesian axis) and pressure

          total   stress  (Ry/bohr**3)                   (kbar)     P=      -81.00
  -0.00037546  -0.00000154   0.00000037          -55.23       -0.23        0.05
  -0.00000154  -0.00068594  -0.00000955           -0.23     -100.91       -1.40
   0.00000037  -0.00000955  -0.00059054            0.05       -1.40      -86.87

     Energy error            =      1.9E-02
     Gradient error          =      2.9E-02

     number of scf cycles    =   2
     number of bfgs steps    =   1

     energy   old            =   -3598.1590499504 Ry
     energy   new            =   -3598.1777363673 Ry

     CASE: energy  _new < energy  _old

     new trust radius        =       0.0912618552 bohr
     new conv_thr            =       0.0000002868 Ry


ATOMIC_POSITIONS (angstrom)
Na            1.5392027337        8.2367689436        6.3910912493
Na            1.5590696029        8.2303613665        1.2167758883
Na            3.2264486819        6.6353625030        3.7611342681
Na           -0.0577736745        6.6313545215        8.9670451624
Na            3.2299970232        6.6253267080        8.9515988314
Na            3.2873273181        2.3513324970        6.4477597319
Na            3.2837789768        2.3613682920        1.2572951686
Na            6.5715496745        2.3553404785        1.2418488376
Na            4.9745732663        0.7499260564        3.8178027507
Na            4.9547073971        0.7563336335        8.9921191117
Li           -0.0350335486        6.5514848921        3.7512315088
Li            6.5488165486        2.4352101079        6.4576624912
Fe            4.9125045198        5.8383318738        6.5820577872
Fe            4.9327306531        5.8510071026        1.4076596996
Fe            1.6012714802        3.1483631262        3.6268372128
Fe            1.5810463469        3.1356878974        8.8012353004
P             1.5545409173        5.2556340053        6.1325707173
P             1.6008625309        5.2652830424        0.9766449222
P             4.9592350827        3.7310609947        4.0763232827
P             4.9129134691        3.7214119576        9.2322490778
C             4.9186556554        8.4677210592        6.2217479884
C             4.8729470890        8.4362936573        1.0465405753
C             1.5951203446        0.5189739408        3.9871460116
C             1.6408289110        0.5504013427        9.1623534247
O             1.4608074575        8.2177788960        3.9170074023
O             1.5815052050        8.2550799697        9.1070172474
O             4.8752625729        7.8531181899        7.3719145115
O             4.8880040353        7.8305425988        2.1972696921
O             4.9110370217        7.7092887963        5.1766528469
O             4.8899914934        7.6752257709        0.0037574553
O             0.3266937233        6.1331688299        6.5771445335
O             2.8338639317        6.0635164805        6.5309965254
O             0.3501717469        6.1245532430        1.4074208247
O             2.8589126719        6.1234426173        1.3540853645
O             1.5151966021        5.0934878303        4.5466041105
O             5.0002567728        5.1655236452        3.4087260467
O             1.5793721296        5.0508965344        9.7829617148
O             4.8996072732        5.1231543453        8.5207068763
O             1.5135192272        3.8211703548        6.8001689533
O             4.9985793979        3.8932071697        5.6622898895
O             1.6141687268        3.8635406547        1.6881881237
O             4.9344038704        3.9357974656        0.4259332852
O             3.6799120683        2.9231785195        3.6778974746
O             6.1870822767        2.8535261701        3.6317504665
O             3.6548633281        2.8632523827        8.8548096355
O             6.1636042531        2.8621407570        8.8014731753
O             1.6027389783        1.2774052037        5.0322421531
O             1.6237845066        1.3114692291       10.2051365447
O             1.6385134271        1.1335768101        2.8369794885
O             1.6257729647        1.1561514012        8.0116243079
O             5.0529685425        0.7689151040        6.2918865977
O             4.9322707950        0.7316150303        1.1018767526



     Writing output data file ./tmp_system1/system1.save/
     NEW-OLD atomic charge density approx. for the potential

     Check: negative core charge=   -0.000061

     total cpu time spent up to now is      281.1 secs

     Self-consistent Calculation

     iteration #  1     ecut=    40.00 Ry     beta= 0.30
     Davidson diagonalization with overlap
     c_bands:  1 eigenvalues not converged
     ethr =  1.00E-06,  avg # of iterations = 20.0

     total cpu time spent up to now is      303.8 secs

     total energy              =   -3598.15987574 Ry
     estimated scf accuracy    <       0.06774255 Ry

     iteration #  2     ecut=    40.00 Ry     beta= 0.30
     Davidson diagonalization with overlap
     ethr =  1.86E-05,  avg # of iterations =  2.0

     total cpu time spent up to now is      310.1 secs

     total energy              =   -3598.17724268 Ry
     estimated scf accuracy    <       0.02943796 Ry

     iteration #  3     ecut=    40.00 Ry     beta= 0.30
     Davidson diagonalization with overlap
     ethr =  8.09E-06,  avg # of iterations =  2.0

     total cpu time spent up to now is      316.6 secs

     total energy              =   -3598.18216076 Ry
     estimated scf accuracy    <       0.02498430 Ry

     iteration #  4     ecut=    40.00 Ry     beta= 0.30
     Davidson diagonalization with overlap
     ethr =  6.86E-06,  avg # of iterations =  2.0

     total cpu time spent up to now is      323.1 secs

     total energy              =   -3598.17963330 Ry
     estimated scf accuracy    <       0.13111234 Ry

     iteration #  5     ecut=    40.00 Ry     beta= 0.30
     Davidson diagonalization with overlap
     ethr =  6.86E-06,  avg # of iterations =  2.0

     total cpu time spent up to now is      329.7 secs

     total energy              =   -3598.19027145 Ry
     estimated scf accuracy    <       0.00108180 Ry

     iteration #  6     ecut=    40.00 Ry     beta= 0.30
     Davidson diagonalization with overlap
     ethr =  2.97E-07,  avg # of iterations =  2.0

     total cpu time spent up to now is      336.1 secs

     total energy              =   -3598.19463310 Ry
     estimated scf accuracy    <       0.00016198 Ry

     iteration #  7     ecut=    40.00 Ry     beta= 0.30
     Davidson diagonalization with overlap
     ethr =  4.45E-08,  avg # of iterations =  5.0

     total cpu time spent up to now is      344.2 secs

     total energy              =   -3598.19768396 Ry
     estimated scf accuracy    <       0.00002683 Ry

     iteration #  8     ecut=    40.00 Ry     beta= 0.30
     Davidson diagonalization with overlap
     ethr =  7.37E-09,  avg # of iterations =  2.0

     total cpu time spent up to now is      351.5 secs

     total energy              =   -3598.19921360 Ry
     estimated scf accuracy    <       0.00000582 Ry

     iteration #  9     ecut=    40.00 Ry     beta= 0.30
     Davidson diagonalization with overlap
     ethr =  1.60E-09,  avg # of iterations =  4.0

     total cpu time spent up to now is      358.9 secs

     total energy              =   -3598.20003730 Ry
     estimated scf accuracy    <       0.00000167 Ry

     iteration # 10     ecut=    40.00 Ry     beta= 0.30
     Davidson diagonalization with overlap
     ethr =  4.58E-10,  avg # of iterations =  4.0

     total cpu time spent up to now is      366.7 secs

     total energy              =   -3598.20045615 Ry
     estimated scf accuracy    <       0.00000037 Ry

     iteration # 11     ecut=    40.00 Ry     beta= 0.30
     Davidson diagonalization with overlap
     ethr =  1.01E-10,  avg # of iterations =  5.0

     total cpu time spent up to now is      374.3 secs

     End of self-consistent calculation

          k = 0.0000 0.0000 0.0000 ( 17781 PWs)   bands (ev):

   -80.1286 -80.1285 -80.1202 -80.1202 -46.1977 -46.1976 -46.1828 -46.1827
   -46.1595 -46.1592 -46.1469 -46.1443 -46.0612 -46.0582 -46.0548 -46.0535
   -45.7887 -45.7886 -45.7695 -45.7695 -45.0329 -45.0329 -44.9940 -44.9939
   -44.9621 -44.9621 -39.7846 -39.7846 -18.0001 -17.9921 -17.8963 -17.8783
   -17.7577 -17.7566 -17.7391 -17.7375 -17.7125 -17.7086 -17.6980 -17.6965
   -17.6203 -17.6121 -17.5100 -17.5069 -17.0072 -17.0049 -16.9895 -16.9814
   -16.9788 -16.9742 -16.9647 -16.9598 -16.9511 -16.9459 -16.9343 -16.9257
   -16.9115 -16.9088 -16.8972 -16.8942 -16.8801 -16.8793 -15.5908 -15.4952
   -15.4603 -15.4351 -14.7857 -14.7684 -14.6879 -14.6770 -14.5353 -14.5255
   -14.4259 -14.4204 -13.3449 -13.3168 -13.2491 -13.2358 -13.1120 -13.1087
   -13.0874 -13.0771 -13.0629 -13.0175 -12.9988 -12.9771  -3.9469  -3.7053
    -3.5731  -3.4705  -3.2831  -3.1619  -3.0922  -3.0397  -2.2499  -2.1428
    -2.1261  -2.0420  -2.0256  -1.8645  -1.8202  -1.8080  -1.7992  -1.7531
    -1.7387  -1.5592  -1.3411  -1.2391  -0.9020  -0.7788  -0.7118  -0.6716
    -0.6031  -0.4587  -0.4390  -0.2801  -0.2184  -0.1428   0.9451   0.9481
     1.1149   1.2307   1.2492   1.3382   1.3773   1.4099   1.4708   1.5927
     1.6436   1.6871   1.7345   1.7420   1.7475   1.8613   1.9012   1.9913
     2.0253   2.0323   2.0722   2.0984   2.2337   2.2719   2.3550   2.4019
     2.4267   2.4269   2.4528   2.5022   2.5195   2.6354   2.6392   2.6818
     2.6948   2.7400   2.9856   3.1426   3.1621   3.1722   3.2405   3.2503
     3.3646   3.3695   3.4021   3.4622   3.5701   3.6950   3.7049   3.8899
     3.9035   3.9442   6.0225   6.0309   6.1444   6.1546   6.1562   6.1628
     6.1945   6.2495   6.2747   6.3429   6.3840   6.3922   7.1333   7.2077
     7.2692   7.2872   7.3226   7.4384   7.5502   7.5890   8.4629   9.4093
     9.6896   9.7662   9.8273  10.1205  10.2945  10.4885  11.6151  11.8131
    12.1295  12.2198  12.2867  12.2975  12.5833  12.7163  12.7731  12.7952
    12.8906  12.8984  12.9929  13.0672  13.3036  13.4410  13.4590  13.5617
    13.6600  13.6919

     the Fermi energy is     6.7833 ev

!    total energy              =   -3598.20086351 Ry
     estimated scf accuracy    <       0.00000010 Ry
     smearing contrib. (-TS)   =      -0.00871882 Ry
     internal energy E=F+TS    =   -3598.19214469 Ry

     The total energy is F=E-TS. E is the sum of the following terms:
     one-electron contribution =   -1931.49291088 Ry
     hartree contribution      =    1128.26700211 Ry
     xc contribution           =    -536.77061655 Ry
     ewald contribution        =   -1662.76478795 Ry
     one-center paw contrib.   =    -595.43083142 Ry

     convergence has been achieved in  11 iterations

     Forces acting on atoms (cartesian axes, Ry/au):

     atom    1 type  4   force =    -0.00218046   -0.00210601    0.00124254
     atom    2 type  4   force =    -0.00045122   -0.00230878    0.00235330
     atom    3 type  4   force =    -0.00134775   -0.00858267    0.00103773
     atom    4 type  4   force =     0.00256213   -0.00735237    0.00087429
     atom    5 type  4   force =    -0.00240792   -0.00833704    0.00085878
     atom    6 type  4   force =     0.00134775    0.00858267   -0.00103773
     atom    7 type  4   force =     0.00240792    0.00833704   -0.00085878
     atom    8 type  4   force =    -0.00256213    0.00735237   -0.00087429
     atom    9 type  4   force =     0.00218046    0.00210601   -0.00124254
     atom   10 type  4   force =     0.00045122    0.00230878   -0.00235330
     atom   11 type  3   force =     0.00162833   -0.01444006   -0.00246953
     atom   12 type  3   force =    -0.00162833    0.01444006    0.00246953
     atom   13 type  2   force =     0.00943652    0.01494790    0.00282678
     atom   14 type  2   force =    -0.00284616    0.01426766    0.00790418
     atom   15 type  2   force =    -0.00943652   -0.01494790   -0.00282678
     atom   16 type  2   force =     0.00284616   -0.01426766   -0.00790418
     atom   17 type  6   force =    -0.00658467   -0.02310562   -0.00993938
     atom   18 type  6   force =     0.00024616   -0.01978979   -0.00700002
     atom   19 type  6   force =     0.00658467    0.02310562    0.00993938
     atom   20 type  6   force =    -0.00024616    0.01978979    0.00700002
     atom   21 type  1   force =     0.00161459   -0.01001953    0.00015898
     atom   22 type  1   force =     0.00003369   -0.00786893   -0.00160835
     atom   23 type  1   force =    -0.00161459    0.01001953   -0.00015898
     atom   24 type  1   force =    -0.00003369    0.00786893    0.00160835
     atom   25 type  5   force =    -0.00292241    0.00403187   -0.00501044
     atom   26 type  5   force =     0.00101335    0.00728957   -0.00475265
     atom   27 type  5   force =     0.00068952   -0.01056468    0.00825144
     atom   28 type  5   force =     0.00170357   -0.01213252    0.01076893
     atom   29 type  5   force =     0.00106956   -0.00982396   -0.01787941
     atom   30 type  5   force =     0.00207301   -0.01356703   -0.01751568
     atom   31 type  5   force =     0.01835121   -0.00470746   -0.00279946
     atom   32 type  5   force =    -0.01378407   -0.00675969   -0.00563486
     atom   33 type  5   force =     0.02003068   -0.00597908   -0.00000985
     atom   34 type  5   force =    -0.01517818   -0.00569372   -0.00583180
     atom   35 type  5   force =    -0.00388686   -0.01268444    0.02783284
     atom   36 type  5   force =     0.00423665   -0.01722773   -0.00400038
     atom   37 type  5   force =    -0.00184565   -0.01346861    0.03174723
     atom   38 type  5   force =    -0.00021598   -0.02081225   -0.00346488
     atom   39 type  5   force =    -0.00423665    0.01722773    0.00400038
     atom   40 type  5   force =     0.00388686    0.01268444   -0.02783284
     atom   41 type  5   force =     0.00021598    0.02081225    0.00346488
     atom   42 type  5   force =     0.00184565    0.01346861   -0.03174723
     atom   43 type  5   force =     0.01378407    0.00675969    0.00563486
     atom   44 type  5   force =    -0.01835121    0.00470746    0.00279946
     atom   45 type  5   force =     0.01517818    0.00569372    0.00583180
     atom   46 type  5   force =    -0.02003068    0.00597908    0.00000985
     atom   47 type  5   force =    -0.00106956    0.00982396    0.01787941
     atom   48 type  5   force =    -0.00207301    0.01356703    0.01751568
     atom   49 type  5   force =    -0.00068952    0.01056468   -0.00825144
     atom   50 type  5   force =    -0.00170357    0.01213252   -0.01076893
     atom   51 type  5   force =     0.00292241   -0.00403187    0.00501044
     atom   52 type  5   force =    -0.00101335   -0.00728957    0.00475265

     Total force =     0.127315     Total SCF correction =     0.000476


     Computing stress (Cartesian axis) and pressure

          total   stress  (Ry/bohr**3)                   (kbar)     P=      -86.55
  -0.00040518   0.00000294   0.00000101          -59.60        0.43        0.15
   0.00000294  -0.00077568   0.00000994            0.43     -114.11        1.46
   0.00000101   0.00000994  -0.00058417            0.15        1.46      -85.93

     Energy error            =      2.3E-02
     Gradient error          =      3.2E-02

     number of scf cycles    =   3
     number of bfgs steps    =   2

     energy   old            =   -3598.1777363673 Ry
     energy   new            =   -3598.2008635078 Ry

     CASE: energy  _new < energy  _old

     new trust radius        =       0.1011817358 bohr
     new conv_thr            =       0.0000003175 Ry


ATOMIC_POSITIONS (angstrom)
Na            1.5348758615        8.2293577201        6.3921721641
Na            1.5580875354        8.2227801033        1.2197531154
Na            3.2251869296        6.6195759894        3.7610809900
Na           -0.0552314247        6.6166901108        8.9661949733
Na            3.2274889753        6.6092419107        8.9507129396
Na            3.2885890704        2.3671190106        6.4478130100
Na            3.2862870247        2.3774530893        1.2581810604
Na            6.5690074247        2.3700048892        1.2426990267
Na            4.9789001385        0.7573372799        3.8167218359
Na            4.9556894646        0.7639148967        8.9891418846
Li           -0.0316447523        6.5251453993        3.7455037867
Li            6.5454277523        2.4615496007        6.4633902133
Fe            4.9305031630        5.8791872245        6.6086591002
Fe            4.9460919907        5.8965140896        1.4325082206
Fe            1.5832728370        3.1075077755        3.6002358998
Fe            1.5676850093        3.0901809104        8.7763867794
P             1.5499212802        5.2369781015        6.1349853967
P             1.6031176323        5.2487905571        0.9835027580
P             4.9638547198        3.7497168985        4.0739086033
P             4.9106583677        3.7379044429        9.2253912420
C             4.9221141736        8.4596631294        6.2157953699
C             4.8727723895        8.4269504343        1.0427286285
C             1.5916618264        0.5270318706        3.9930986301
C             1.6410036105        0.5597445657        9.1661653715
O             1.4530491697        8.2319489208        3.9108960156
O             1.5833523306        8.2735056056        9.1017705436
O             4.8759173499        7.8153702334        7.3620097452
O             4.8902882378        7.7894709835        2.1873711119
O             4.9128793484        7.6911245972        5.1723086686
O             4.8928576741        7.6494546543        0.0011661636
O             0.3293771140        6.1318046806        6.5748973933
O             2.8289041984        6.0535294762        6.5211523426
O             0.3568069077        6.1201821656        1.4100261133
O             2.8557298088        6.1201700544        1.3450495344
O             1.5066954969        5.0556276612        4.5581183199
O             5.0081394984        5.1707336130        3.3794633918
O             1.5763212528        5.0118988484        9.8006494638
O             4.8983688111        5.1242631472        8.4856039546
O             1.5056365016        3.8159603870        6.8294316082
O             5.0070805031        3.9310673388        5.6507756801
O             1.6154071889        3.8624318528        1.7232910454
O             4.9374547472        3.9747951516        0.4082455362
O             3.6848718016        2.9331655238        3.6877416574
O             6.1843988860        2.8548903194        3.6339976067
O             3.6580461912        2.8665249456        8.8638454656
O             6.1569690923        2.8665118344        8.7988678867
O             1.6008966516        1.2955694028        5.0365863314
O             1.6209183259        1.3372403457       10.2077278364
O             1.6378586501        1.1713247666        2.8468842548
O             1.6234887622        1.1972230165        8.0215228881
O             5.0607268303        0.7547450792        6.2979979844
O             4.9304236694        0.7131893944        1.1071234564



     Writing output data file ./tmp_system1/system1.save/
     NEW-OLD atomic charge density approx. for the potential

     Check: negative core charge=   -0.000060

     total cpu time spent up to now is      412.1 secs

     Self-consistent Calculation

     iteration #  1     ecut=    40.00 Ry     beta= 0.30
     Davidson diagonalization with overlap
     c_bands:  1 eigenvalues not converged
     ethr =  1.00E-06,  avg # of iterations = 20.0

     total cpu time spent up to now is      433.3 secs

     total energy              =   -3598.17122346 Ry
     estimated scf accuracy    <       0.08241776 Ry

     iteration #  2     ecut=    40.00 Ry     beta= 0.30
     Davidson diagonalization with overlap
     ethr =  2.26E-05,  avg # of iterations =  1.0

     total cpu time spent up to now is      438.8 secs

     total energy              =   -3598.18567769 Ry
     estimated scf accuracy    <       0.03519705 Ry

     iteration #  3     ecut=    40.00 Ry     beta= 0.30
     Davidson diagonalization with overlap
     ethr =  9.67E-06,  avg # of iterations =  2.0

     total cpu time spent up to now is      444.9 secs

     total energy              =   -3598.18654949 Ry
     estimated scf accuracy    <       0.01301733 Ry

     iteration #  4     ecut=    40.00 Ry     beta= 0.30
     Davidson diagonalization with overlap
     ethr =  3.58E-06,  avg # of iterations = 16.0

     total cpu time spent up to now is      451.6 secs

     total energy              =   -3598.19847515 Ry
     estimated scf accuracy    <       0.03921184 Ry

     iteration #  5     ecut=    40.00 Ry     beta= 0.30
     Davidson diagonalization with overlap
     ethr =  3.58E-06,  avg # of iterations =  2.0

     total cpu time spent up to now is      457.8 secs

     total energy              =   -3598.20779822 Ry
     estimated scf accuracy    <       0.00134005 Ry

     iteration #  6     ecut=    40.00 Ry     beta= 0.30
     Davidson diagonalization with overlap
     ethr =  3.68E-07,  avg # of iterations =  2.0

     total cpu time spent up to now is      464.3 secs

     total energy              =   -3598.21293744 Ry
     estimated scf accuracy    <       0.00018150 Ry

     iteration #  7     ecut=    40.00 Ry     beta= 0.30
     Davidson diagonalization with overlap
     ethr =  4.99E-08,  avg # of iterations =  5.0

     total cpu time spent up to now is      471.8 secs

     total energy              =   -3598.21667246 Ry
     estimated scf accuracy    <       0.00001896 Ry

     iteration #  8     ecut=    40.00 Ry     beta= 0.30
     Davidson diagonalization with overlap
     ethr =  5.21E-09,  avg # of iterations =  5.0

     total cpu time spent up to now is      479.4 secs

     total energy              =   -3598.21858443 Ry
     estimated scf accuracy    <       0.00000570 Ry

     iteration #  9     ecut=    40.00 Ry     beta= 0.30
     Davidson diagonalization with overlap
     ethr =  1.57E-09,  avg # of iterations =  3.0

     total cpu time spent up to now is      486.3 secs

     total energy              =   -3598.21957201 Ry
     estimated scf accuracy    <       0.00000134 Ry

     iteration # 10     ecut=    40.00 Ry     beta= 0.30
     Davidson diagonalization with overlap
     ethr =  3.69E-10,  avg # of iterations =  4.0

     total cpu time spent up to now is      493.7 secs

     End of self-consistent calculation

          k = 0.0000 0.0000 0.0000 ( 17781 PWs)   bands (ev):

   -80.0035 -80.0035 -80.0026 -80.0026 -46.0916 -46.0911 -46.0819 -46.0813
   -46.0303 -46.0298 -46.0248 -46.0212 -45.9400 -45.9354 -45.9267 -45.9221
   -45.8593 -45.8593 -45.8408 -45.8407 -45.0674 -45.0674 -45.0287 -45.0287
   -45.0087 -45.0087 -39.7807 -39.7807 -18.0557 -18.0470 -17.9367 -17.9199
   -17.8267 -17.8256 -17.8085 -17.8068 -17.7837 -17.7801 -17.7626 -17.7612
   -17.6896 -17.6817 -17.5729 -17.5682 -17.0465 -17.0412 -17.0223 -17.0157
   -17.0128 -17.0076 -16.9970 -16.9939 -16.9838 -16.9813 -16.9667 -16.9589
   -16.9538 -16.9522 -16.9401 -16.9388 -16.9226 -16.9223 -15.5436 -15.4443
   -15.4080 -15.3836 -15.0019 -14.9843 -14.8453 -14.8305 -14.4879 -14.4818
   -14.3820 -14.3751 -13.3189 -13.2942 -13.2252 -13.2069 -13.0601 -13.0174
   -12.9940 -12.9925 -12.9766 -12.9640 -12.9376 -12.9189  -4.0194  -3.8000
    -3.6417  -3.5604  -3.2656  -3.1645  -3.0617  -3.0036  -2.3271  -2.2196
    -2.2064  -2.1151  -2.0879  -1.9452  -1.9111  -1.8756  -1.8469  -1.8100
    -1.7974  -1.6022  -1.3458  -1.2376  -0.8776  -0.7685  -0.6610  -0.6089
    -0.5592  -0.4150  -0.3898  -0.2417  -0.1368  -0.0967   0.8811   0.9661
     1.0881   1.1325   1.2007   1.3491   1.3555   1.4402   1.5264   1.6273
     1.6748   1.6791   1.7123   1.7529   1.7736   1.8213   1.9292   1.9892
     1.9945   2.0364   2.0502   2.0617   2.1978   2.2585   2.3658   2.3735
     2.3969   2.4315   2.4440   2.5063   2.5078   2.6073   2.6362   2.6498
     2.7424   2.8014   2.9112   3.0563   3.1639   3.2172   3.2562   3.2990
     3.3705   3.3832   3.4328   3.5118   3.5200   3.7113   3.7751   3.9798
     3.9844   4.0276   6.1386   6.1464   6.2612   6.2656   6.2716   6.2718
     6.2977   6.3633   6.4090   6.4821   6.5142   6.5236   7.3546   7.3823
     7.4269   7.4690   7.5567   7.6507   7.7493   7.7877   8.4237   9.3157
     9.6046   9.6649   9.7219  10.0748  10.2167  10.5528  11.5533  11.8991
    12.0357  12.3012  12.3869  12.4062  12.4999  12.6571  12.7219  12.8143
    12.8856  12.9646  12.9864  13.1309  13.3193  13.4449  13.4888  13.6576
    13.7452  13.7774

     the Fermi energy is     6.9466 ev

!    total energy              =   -3598.22055120 Ry
     estimated scf accuracy    <       0.00000021 Ry
     smearing contrib. (-TS)   =      -0.00593133 Ry
     internal energy E=F+TS    =   -3598.21461987 Ry

     The total energy is F=E-TS. E is the sum of the following terms:
     one-electron contribution =   -1949.87189550 Ry
     hartree contribution      =    1137.56951154 Ry
     xc contribution           =    -536.83435426 Ry
     ewald contribution        =   -1653.64991374 Ry
     one-center paw contrib.   =    -595.42796791 Ry

     convergence has been achieved in  10 iterations

     Forces acting on atoms (cartesian axes, Ry/au):

     atom    1 type  4   force =    -0.00186638   -0.00171974    0.00143801
     atom    2 type  4   force =    -0.00028459   -0.00171203    0.00331641
     atom    3 type  4   force =    -0.00258983   -0.00954548    0.00247712
     atom    4 type  4   force =     0.00406036   -0.00808427    0.00257979
     atom    5 type  4   force =    -0.00370245   -0.00922349    0.00204820
     atom    6 type  4   force =     0.00258983    0.00954548   -0.00247712
     atom    7 type  4   force =     0.00370245    0.00922349   -0.00204820
     atom    8 type  4   force =    -0.00406036    0.00808427   -0.00257979
     atom    9 type  4   force =     0.00186638    0.00171974   -0.00143801
     atom   10 type  4   force =     0.00028459    0.00171203   -0.00331641
     atom   11 type  3   force =     0.00124670   -0.01525233   -0.00219085
     atom   12 type  3   force =    -0.00124670    0.01525233    0.00219085
     atom   13 type  2   force =    -0.00353542    0.01100317   -0.01017697
     atom   14 type  2   force =    -0.01604153    0.00157797   -0.00730130
     atom   15 type  2   force =     0.00353542   -0.01100317    0.01017697
     atom   16 type  2   force =     0.01604153   -0.00157797    0.00730130
     atom   17 type  6   force =    -0.00276381   -0.01415000   -0.00433102
     atom   18 type  6   force =    -0.00151506   -0.01279465   -0.00266763
     atom   19 type  6   force =     0.00276381    0.01415000    0.00433102
     atom   20 type  6   force =     0.00151506    0.01279465    0.00266763
     atom   21 type  1   force =     0.00058723   -0.03139366    0.00372801
     atom   22 type  1   force =     0.00134832   -0.03811164   -0.00224477
     atom   23 type  1   force =    -0.00058723    0.03139366   -0.00372801
     atom   24 type  1   force =    -0.00134832    0.03811164    0.00224477
     atom   25 type  5   force =    -0.00113442    0.00024691   -0.00586937
     atom   26 type  5   force =     0.00144329   -0.00292663   -0.00531666
     atom   27 type  5   force =     0.00242901    0.00907792    0.00523533
     atom   28 type  5   force =     0.00182760    0.01191928    0.00926384
     atom   29 type  5   force =     0.00207836    0.00009467   -0.01332288
     atom   30 type  5   force =     0.00234337    0.00049768   -0.00932798
     atom   31 type  5   force =     0.02022888   -0.00324094   -0.00082180
     atom   32 type  5   force =    -0.01421955   -0.00708557   -0.00508676
     atom   33 type  5   force =     0.02026440   -0.00392261    0.00206017
     atom   34 type  5   force =    -0.01222400   -0.00445685   -0.00417930
     atom   35 type  5   force =    -0.00468681   -0.00895044    0.02265076
     atom   36 type  5   force =     0.00496363   -0.01631052    0.00340630
     atom   37 type  5   force =    -0.00228589   -0.00954858    0.02584823
     atom   38 type  5   force =     0.00002534   -0.02061247    0.00707040
     atom   39 type  5   force =    -0.00496363    0.01631052   -0.00340630
     atom   40 type  5   force =     0.00468681    0.00895044   -0.02265076
     atom   41 type  5   force =    -0.00002534    0.02061247   -0.00707040
     atom   42 type  5   force =     0.00228589    0.00954858   -0.02584823
     atom   43 type  5   force =     0.01421955    0.00708557    0.00508676
     atom   44 type  5   force =    -0.02022888    0.00324094    0.00082180
     atom   45 type  5   force =     0.01222400    0.00445685    0.00417930
     atom   46 type  5   force =    -0.02026440    0.00392261   -0.00206017
     atom   47 type  5   force =    -0.00207836   -0.00009467    0.01332288
     atom   48 type  5   force =    -0.00234337   -0.00049768    0.00932798
     atom   49 type  5   force =    -0.00242901   -0.00907792   -0.00523533
     atom   50 type  5   force =    -0.00182760   -0.01191928   -0.00926384
     atom   51 type  5   force =     0.00113442   -0.00024691    0.00586937
     atom   52 type  5   force =    -0.00144329    0.00292663    0.00531666

     Total force =     0.127553     Total SCF correction =     0.000952


     Computing stress (Cartesian axis) and pressure

          total   stress  (Ry/bohr**3)                   (kbar)     P=      -85.43
  -0.00039166   0.00000447   0.00000237          -57.61        0.66        0.35
   0.00000447  -0.00076803   0.00002925            0.66     -112.98        4.30
   0.00000237   0.00002925  -0.00058260            0.35        4.30      -85.70

     Energy error            =      2.0E-02
     Gradient error          =      3.8E-02

     number of scf cycles    =   4
     number of bfgs steps    =   3

     energy   old            =   -3598.2008635078 Ry
     energy   new            =   -3598.2205512047 Ry

     CASE: energy  _new < energy  _old

     new trust radius        =       0.0849838595 bohr
     new conv_thr            =       0.0000003811 Ry


ATOMIC_POSITIONS (angstrom)
Na            1.5303154662        8.2220014741        6.3937689483
Na            1.5571507990        8.2152785225        1.2241689890
Na            3.2223880168        6.6009776614        3.7626259657
Na           -0.0505517192        6.5997874284        8.9671728891
Na            3.2230551086        6.5905070161        8.9512359775
Na            3.2913879832        2.3857173386        6.4462680343
Na            3.2907208914        2.3961879839        1.2576580225
Na            6.5643277192        2.3869075716        1.2417211109
Na            4.9834605338        0.7646935259        3.8151250517
Na            4.9566262010        0.7714164775        8.9847260110
Li           -0.0280595120        6.4947749172        3.7395137619
Li            6.5418425120        2.4919200828        6.4693802381
Fe            4.9403311697        5.9180933202        6.6226590342
Fe            4.9455712387        5.9328005564        1.4461313871
Fe            1.5734448303        3.0686016798        3.5862359658
Fe            1.5682057613        3.0538944436        8.7627636129
P             1.5469256428        5.2205342416        6.1385368063
P             1.6041531627        5.2348168538        0.9909646179
P             4.9668503572        3.7661607584        4.0703571937
P             4.9096228373        3.7518781462        9.2179293821
C             4.9252783405        8.4357201807        6.2114382352
C             4.8735562332        8.3960393899        1.0380338971
C             1.5884976595        0.5509748193        3.9974557648
C             1.6402197668        0.5906556101        9.1708601029
O             1.4463337391        8.2468798552        3.9021797714
O             1.5857023237        8.2889327255        9.0942829475
O             4.8781724622        7.7916375824        7.3556137173
O             4.8932155940        7.7660034783        2.1821989766
O             4.9157994281        7.6781959334        5.1645710491
O             4.8965769966        7.6310238583       -0.0027573407
O             0.3413026864        6.1293603329        6.5731396390
O             2.8173627254        6.0406923091        6.5100010733
O             0.3719679976        6.1148025926        1.4138226941
O             2.8481070375        6.1151033082        1.3354725619
O             1.4966676341        5.0187616016        4.5749697644
O             5.0177323850        5.1704275824        3.3567500406
O             1.5723871409        4.9737713738        9.8241708628
O             4.8973836111        5.1186341009        8.4601613047
O             1.4960436150        3.8162664176        6.8521449594
O             5.0171083659        3.9679333984        5.6339242356
O             1.6163923889        3.8680608991        1.7487336953
O             4.9413888591        4.0129226262        0.3847241372
O             3.6964132746        2.9460026909        3.6988929267
O             6.1724733136        2.8573346671        3.6357553610
O             3.6656689625        2.8715916918        8.8734224381
O             6.1418080024        2.8718914074        8.7950713059
O             1.5979765719        1.3084980666        5.0443239509
O             1.6171990034        1.3556711417       10.2116513407
O             1.6356035378        1.1950574176        2.8532802827
O             1.6205614060        1.2206905217        8.0266950234
O             5.0674422609        0.7398141448        6.3067142286
O             4.9280736763        0.6977622745        1.1146110525



     Writing output data file ./tmp_system1/system1.save/
     NEW-OLD atomic charge density approx. for the potential

     Check: negative core charge=   -0.000060

     total cpu time spent up to now is      531.2 secs

     Self-consistent Calculation

     iteration #  1     ecut=    40.00 Ry     beta= 0.30
     Davidson diagonalization with overlap
     c_bands:  1 eigenvalues not converged
     ethr =  1.00E-06,  avg # of iterations = 20.0

     total cpu time spent up to now is      551.6 secs

     total energy              =   -3598.20068385 Ry
     estimated scf accuracy    <       0.05115487 Ry

     iteration #  2     ecut=    40.00 Ry     beta= 0.30
     Davidson diagonalization with overlap
     ethr =  1.41E-05,  avg # of iterations =  1.0

     total cpu time spent up to now is      556.9 secs

     total energy              =   -3598.20037369 Ry
     estimated scf accuracy    <       0.02161593 Ry

     iteration #  3     ecut=    40.00 Ry     beta= 0.30
     Davidson diagonalization with overlap
     ethr =  5.94E-06,  avg # of iterations =  2.0

     total cpu time spent up to now is      562.8 secs

     total energy              =   -3598.20278561 Ry
     estimated scf accuracy    <       0.00291898 Ry

     iteration #  4     ecut=    40.00 Ry     beta= 0.30
     Davidson diagonalization with overlap
     ethr =  8.02E-07,  avg # of iterations = 14.0

     total cpu time spent up to now is      569.7 secs

     total energy              =   -3598.21560518 Ry
     estimated scf accuracy    <       0.00447397 Ry

     iteration #  5     ecut=    40.00 Ry     beta= 0.30
     Davidson diagonalization with overlap
     ethr =  8.02E-07,  avg # of iterations =  2.0

     total cpu time spent up to now is      575.6 secs

     total energy              =   -3598.22306441 Ry
     estimated scf accuracy    <       0.00035649 Ry

     iteration #  6     ecut=    40.00 Ry     beta= 0.30
     Davidson diagonalization with overlap
     ethr =  9.79E-08,  avg # of iterations =  3.0

     total cpu time spent up to now is      581.7 secs

     total energy              =   -3598.22674577 Ry
     estimated scf accuracy    <       0.00006380 Ry

     iteration #  7     ecut=    40.00 Ry     beta= 0.30
     Davidson diagonalization with overlap
     ethr =  1.75E-08,  avg # of iterations =  5.0

     total cpu time spent up to now is      588.6 secs

     total energy              =   -3598.22890122 Ry
     estimated scf accuracy    <       0.00000958 Ry

     iteration #  8     ecut=    40.00 Ry     beta= 0.30
     Davidson diagonalization with overlap
     ethr =  2.63E-09,  avg # of iterations =  5.0

     total cpu time spent up to now is      595.1 secs

     total energy              =   -3598.23003671 Ry
     estimated scf accuracy    <       0.00000257 Ry

     iteration #  9     ecut=    40.00 Ry     beta= 0.30
     Davidson diagonalization with overlap
     ethr =  7.06E-10,  avg # of iterations =  4.0

     total cpu time spent up to now is      602.0 secs

     total energy              =   -3598.23062340 Ry
     estimated scf accuracy    <       0.00000046 Ry

     iteration # 10     ecut=    40.00 Ry     beta= 0.30
     Davidson diagonalization with overlap
     ethr =  1.26E-10,  avg # of iterations =  5.0

     total cpu time spent up to now is      609.3 secs

     End of self-consistent calculation

          k = 0.0000 0.0000 0.0000 ( 17781 PWs)   bands (ev):

   -79.9686 -79.9686 -79.9636 -79.9636 -46.0649 -46.0648 -46.0608 -46.0605
   -45.9933 -45.9922 -45.9896 -45.9857 -45.9021 -45.8981 -45.8789 -45.8777
   -45.8777 -45.8743 -45.8560 -45.8560 -45.1177 -45.1176 -45.0723 -45.0722
   -45.0487 -45.0487 -39.7732 -39.7731 -18.0917 -18.0822 -17.9748 -17.9589
   -17.8452 -17.8442 -17.8241 -17.8225 -17.7979 -17.7944 -17.7798 -17.7780
   -17.7174 -17.7110 -17.6202 -17.6159 -17.0869 -17.0849 -17.0699 -17.0643
   -17.0619 -17.0554 -17.0457 -17.0431 -17.0250 -17.0220 -17.0092 -17.0020
   -16.9934 -16.9915 -16.9792 -16.9780 -16.9646 -16.9642 -15.5786 -15.4808
   -15.4426 -15.4184 -14.9284 -14.9143 -14.8128 -14.8026 -14.6725 -14.6648
   -14.5193 -14.5160 -13.3387 -13.3168 -13.2470 -13.2280 -13.0473 -12.9841
   -12.9687 -12.9674 -12.9474 -12.9441 -12.9198 -12.9095  -4.0755  -3.8763
    -3.6834  -3.6111  -3.2451  -3.1392  -3.0188  -2.9569  -2.4031  -2.2930
    -2.2580  -2.1564  -2.1299  -2.0244  -1.9920  -1.9265  -1.8921  -1.8638
    -1.8475  -1.6579  -1.3700  -1.2515  -0.8760  -0.7751  -0.6446  -0.5769
    -0.5307  -0.4114  -0.3624  -0.2106  -0.0997  -0.0652   0.8256   0.9414
     1.0016   1.1264   1.1382   1.3165   1.3460   1.4505   1.5379   1.6021
     1.6366   1.6860   1.7281   1.7479   1.7848   1.8415   1.9213   1.9441
     1.9690   1.9726   2.0452   2.0715   2.1441   2.2124   2.2948   2.3116
     2.3780   2.4063   2.4201   2.4850   2.5050   2.5974   2.6162   2.6507
     2.7548   2.8466   2.8926   3.0012   3.1615   3.2025   3.2240   3.3324
     3.3555   3.4101   3.4787   3.5009   3.5597   3.7332   3.8294   4.0314
     4.0537   4.0839   6.1832   6.1879   6.2872   6.3027   6.3057   6.3083
     6.3175   6.3916   6.4484   6.5298   6.5485   6.5663   7.4408   7.4548
     7.4825   7.5388   7.7070   7.7680   7.8591   7.8953   8.4101   9.2569
     9.5547   9.6139   9.6679  10.0474  10.1902  10.6111  11.5154  11.9575
    12.0367  12.3518  12.4478  12.4751  12.5002  12.6071  12.6767  12.7813
    12.9292  13.0541  13.0751  13.2508  13.3840  13.4797  13.5703  13.7320
    13.8767  13.9083

     the Fermi energy is     7.0042 ev

[...]
Na            3.2159002924        6.5328604388        3.8496641600
Na           -0.0695031094        6.4890209021        8.9885967272
Na            3.1332615245        6.5431969926        9.0455957141
Na            3.2978757076        2.4538345612        6.3592298400
Na            3.3805144755        2.4434980074        1.1632982859
Na            6.5832791094        2.4976740979        1.2202972728
Na            5.0562948940        0.6957232420        3.8443851932
Na            4.9119746831        0.7970502247        8.8336727219
Li            0.0178449581        5.9062042625        3.5554412215
Li            6.4959380419        3.0804907375        6.6534527785
Fe            4.9486130271        5.9382247337        6.5327966581
Fe            4.9447565713        5.9398667837        1.3575915929
Fe            1.5651629729        3.0484702663        3.6760983419
Fe            1.5690204287        3.0468282163        8.8513034071
P             1.5679847792        5.2504467375        6.1535174262
P             1.6217157166        5.2070620547        1.0332697091
P             4.9457912208        3.7362482625        4.0553765738
P             4.8920602834        3.7796329453        9.1756242909
C             4.8418914117        8.3579701375        6.2011088978
C             4.8988997328        8.3627038087        0.9675073852
C             1.6718845883        0.6287248625        4.0077851022
C             1.6148762672        0.6239911913        9.2413866148
O             1.7117192079        8.3495775505        3.9656372183
O             1.5741411229        8.3465656142        9.2794730788
O             4.7895247501        7.7616490178        7.3706323255
O             4.8341094378        7.8227203360        2.1542667232
O             5.0378275377        7.5604286118        5.1897695270
O             5.0173275718        7.5037303835       -0.0092482559
O             0.4378768527        6.1502628820        6.7713993878
O             2.8897578197        6.0648855354        6.1774661714
O             0.4401512010        6.0492119371        1.6635149682
O             2.8818716929        6.1352609780        1.0697167190
O             1.2873809063        4.9225341288        4.6410038719
O             4.8767637430        5.0760641233        3.2571624312
O             1.3732368406        4.8688693943        9.9108074240
O             4.7182481776        5.0833500074        8.3601149585
O             1.6370122570        3.9106298767        6.9517325688
O             5.2263950937        4.0641608712        5.5678901281
O             1.7955278224        3.9033449926        1.8487800415
O             5.1405391594        4.1178246057        0.2980875760
O             3.6240181803        2.9218094646        4.0314278286
O             6.0758991473        2.8364321180        3.4374956122
O             3.6319043071        2.8514340220        9.1391782810
O             6.0736247990        2.9374820629        8.5453790318
O             1.4759484623        1.4262653882        5.0191254730
O             1.4964484282        1.4829646165       10.2181422559
O             1.7242512499        1.2250459822        2.8382616745
O             1.6796675622        1.1639736640        8.0546272768
O             4.8020567921        0.6371164495        6.2432567817
O             4.9396348771        0.6401293858        0.9294209212



     Writing output data file ./tmp_system1/system1.save/
     NEW-OLD atomic charge density approx. for the potential

     Check: negative core charge=   -0.000060

     total cpu time spent up to now is     4082.0 secs

     Self-consistent Calculation

     iteration #  1     ecut=    40.00 Ry     beta= 0.30
     Davidson diagonalization with overlap
     ethr =  1.00E-06,  avg # of iterations =  4.0

     Threshold (ethr) on eigenvalues was too large:
     Diagonalizing with lowered threshold

     Davidson diagonalization with overlap
     ethr =  2.37E-08,  avg # of iterations =  4.0

     total cpu time spent up to now is     4098.7 secs

     total energy              =   -3598.30443732 Ry
     estimated scf accuracy    <       0.00008962 Ry

     iteration #  2     ecut=    40.00 Ry     beta= 0.30
     Davidson diagonalization with overlap
     ethr =  2.46E-08,  avg # of iterations =  1.0

     total cpu time spent up to now is     4104.5 secs

     total energy              =   -3598.30444565 Ry
     estimated scf accuracy    <       0.00003715 Ry

     iteration #  3     ecut=    40.00 Ry     beta= 0.30
     Davidson diagonalization with overlap
     ethr =  1.02E-08,  avg # of iterations =  2.0

     total cpu time spent up to now is     4111.2 secs

     total energy              =   -3598.30444943 Ry
     estimated scf accuracy    <       0.00002689 Ry

     iteration #  4     ecut=    40.00 Ry     beta= 0.30
     Davidson diagonalization with overlap
     ethr =  7.39E-09,  avg # of iterations =  2.0

     total cpu time spent up to now is     4118.2 secs

     total energy              =   -3598.30445640 Ry
     estimated scf accuracy    <       0.00000260 Ry

     iteration #  5     ecut=    40.00 Ry     beta= 0.30
     Davidson diagonalization with overlap
     ethr =  7.14E-10,  avg # of iterations =  2.0

     total cpu time spent up to now is     4126.4 secs

     total energy              =   -3598.30446046 Ry
     estimated scf accuracy    <       0.00000056 Ry

     iteration #  6     ecut=    40.00 Ry     beta= 0.30
     Davidson diagonalization with overlap
     ethr =  1.53E-10,  avg # of iterations =  5.0

     total cpu time spent up to now is     4135.0 secs

     total energy              =   -3598.30446338 Ry
     estimated scf accuracy    <       0.00000012 Ry

     iteration #  7     ecut=    40.00 Ry     beta= 0.30
     Davidson diagonalization with overlap
     ethr =  3.34E-11,  avg # of iterations =  4.0

     total cpu time spent up to now is     4144.8 secs

     total energy              =   -3598.30446533 Ry
     estimated scf accuracy    <       0.00000002 Ry

     iteration #  8     ecut=    40.00 Ry     beta= 0.30
     Davidson diagonalization with overlap
     ethr =  5.78E-12,  avg # of iterations =  4.0

     total cpu time spent up to now is     4152.4 secs

     End of self-consistent calculation

          k = 0.0000 0.0000 0.0000 ( 17781 PWs)   bands (ev):

   -79.9509 -79.9509 -79.8643 -79.8642 -46.0623 -46.0614 -45.9792 -45.9785
   -45.9701 -45.9690 -45.9196 -45.9192 -45.8607 -45.8587 -45.7783 -45.7783
   -45.7523 -45.7513 -45.7378 -45.7377 -45.2422 -45.2422 -45.1136 -45.1136
   -45.0148 -45.0148 -39.0599 -39.0597 -17.9518 -17.9388 -17.8744 -17.8607
   -17.7432 -17.7424 -17.7058 -17.7038 -17.6885 -17.6850 -17.6838 -17.6825
   -17.6085 -17.6042 -17.4896 -17.4859 -17.2151 -17.2005 -17.1872 -17.1845
   -17.1765 -17.1659 -17.0725 -17.0636 -17.0617 -17.0601 -17.0474 -17.0407
   -16.9783 -16.9766 -16.9699 -16.9629 -16.9512 -16.9466 -15.8342 -15.7367
   -15.6797 -15.6593 -14.8614 -14.8437 -14.7154 -14.7038 -14.4842 -14.4820
   -14.3612 -14.3555 -13.5080 -13.4984 -13.4527 -13.4116 -13.3321 -13.3166
   -13.2761 -13.2682 -13.1763 -13.1463 -13.1290 -13.1087  -3.9249  -3.6759
    -3.5490  -3.4371  -3.2950  -3.1894  -3.1256  -3.1202  -2.2159  -2.1767
    -2.0767  -2.0060  -1.9605  -1.9035  -1.8901  -1.7826  -1.7451  -1.7141
    -1.6772  -1.5727  -1.4518  -1.3543  -0.9500  -0.9348  -0.8604  -0.8354
    -0.8243  -0.7015  -0.5455  -0.3635  -0.3539  -0.2184   0.8106   0.8694
     1.0199   1.0513   1.1504   1.2520   1.2991   1.3600   1.3602   1.4277
     1.4464   1.5249   1.5421   1.6417   1.7445   1.7742   1.7788   1.9010
     1.9109   1.9677   1.9881   2.0538   2.1170   2.1424   2.2018   2.3563
     2.3667   2.3887   2.4263   2.4400   2.4780   2.5208   2.5817   2.6908
     2.7154   2.7588   2.9527   3.0208   3.0706   3.0846   3.1217   3.1637
     3.2510   3.3012   3.3461   3.4132   3.5538   3.6094   3.6718   3.7363
     3.8013   3.8102   6.2272   6.2394   6.2738   6.3055   6.3352   6.3831
     6.4032   6.4110   6.4263   6.4670   6.5276   6.5470   7.4863   7.5811
     7.6030   7.6972   7.8320   7.8734   7.9859   8.0198   8.4774   9.4721
     9.7114   9.8301   9.8775  10.2434  10.2750  10.6566  11.2900  11.9526
    12.1558  12.1960  12.2090  12.3204  12.5493  12.5611  12.5798  12.7152
    12.7275  12.9607  13.2162  13.3173  13.3226  13.4186  13.4595  13.6162
    13.6935  13.7471

     the Fermi energy is     7.0355 ev

!    total energy              =   -3598.30446758 Ry
     estimated scf accuracy    <          5.2E-09 Ry
     smearing contrib. (-TS)   =      -0.00229924 Ry
     internal energy E=F+TS    =   -3598.30216834 Ry

     The total energy is F=E-TS. E is the sum of the following terms:
     one-electron contribution =   -2007.17614684 Ry
     hartree contribution      =    1166.08952604 Ry
     xc contribution           =    -537.24772843 Ry
     ewald contribution        =   -1624.53574642 Ry
     one-center paw contrib.   =    -595.43207269 Ry

     convergence has been achieved in   8 iterations

     Forces acting on atoms (cartesian axes, Ry/au):

     atom    1 type  4   force =     0.00000992    0.00053176   -0.00028599
     atom    2 type  4   force =    -0.00068866    0.00040819   -0.00044348
     atom    3 type  4   force =     0.00022710    0.00017226    0.00021462
     atom    4 type  4   force =     0.00008285   -0.00001655    0.00028413
     atom    5 type  4   force =     0.00021890    0.00013379    0.00028860
     atom    6 type  4   force =    -0.00022710   -0.00017226   -0.00021462
     atom    7 type  4   force =    -0.00021890   -0.00013379   -0.00028860
     atom    8 type  4   force =    -0.00008285    0.00001655   -0.00028413
     atom    9 type  4   force =    -0.00000992   -0.00053176    0.00028599
     atom   10 type  4   force =     0.00068866   -0.00040819    0.00044348
     atom   11 type  3   force =     0.00033525   -0.00034238    0.00017553
     atom   12 type  3   force =    -0.00033525    0.00034238   -0.00017553
     atom   13 type  2   force =     0.00084235   -0.00058308    0.00041366
     atom   14 type  2   force =    -0.00019641    0.00039413   -0.00056191
     atom   15 type  2   force =    -0.00084235    0.00058308   -0.00041366
     atom   16 type  2   force =     0.00019641   -0.00039413    0.00056191
     atom   17 type  6   force =     0.00037283   -0.00030259    0.00023054
     atom   18 type  6   force =     0.00014524   -0.00014614   -0.00047627
     atom   19 type  6   force =    -0.00037283    0.00030259   -0.00023054
     atom   20 type  6   force =    -0.00014524    0.00014614    0.00047627
     atom   21 type  1   force =    -0.00000907   -0.00010911    0.00011972
     atom   22 type  1   force =    -0.00001160    0.00004294    0.00036508
     atom   23 type  1   force =     0.00000907    0.00010911   -0.00011972
     atom   24 type  1   force =     0.00001160   -0.00004294   -0.00036508
     atom   25 type  5   force =    -0.00050663    0.00012603    0.00012821
     atom   26 type  5   force =    -0.00015845    0.00006652   -0.00014830
     atom   27 type  5   force =     0.00004508   -0.00013674    0.00026203
     atom   28 type  5   force =     0.00020017    0.00000091    0.00040134
     atom   29 type  5   force =     0.00010344    0.00077436   -0.00041214
     atom   30 type  5   force =    -0.00008706    0.00000080    0.00025453
     atom   31 type  5   force =     0.00006796   -0.00039512   -0.00065605
     atom   32 type  5   force =    -0.00048315    0.00024698    0.00028318
     atom   33 type  5   force =     0.00040313   -0.00025282    0.00003960
     atom   34 type  5   force =     0.00016408    0.00034323    0.00058203
     atom   35 type  5   force =    -0.00094618    0.00022644    0.00040382
     atom   36 type  5   force =    -0.00050808    0.00003633   -0.00035676
     atom   37 type  5   force =    -0.00011236    0.00021514    0.00054104
     atom   38 type  5   force =    -0.00084546   -0.00032786    0.00005375
     atom   39 type  5   force =     0.00050808   -0.00003633    0.00035676
     atom   40 type  5   force =     0.00094618   -0.00022644   -0.00040382
     atom   41 type  5   force =     0.00084546    0.00032786   -0.00005375
     atom   42 type  5   force =     0.00011236   -0.00021514   -0.00054104
     atom   43 type  5   force =     0.00048315   -0.00024698   -0.00028318
     atom   44 type  5   force =    -0.00006796    0.00039512    0.00065605
     atom   45 type  5   force =    -0.00016408   -0.00034323   -0.00058203
     atom   46 type  5   force =    -0.00040313    0.00025282   -0.00003960
     atom   47 type  5   force =    -0.00010344   -0.00077436    0.00041214
     atom   48 type  5   force =     0.00008706   -0.00000080   -0.00025453
     atom   49 type  5   force =    -0.00004508    0.00013674   -0.00026203
     atom   50 type  5   force =    -0.00020017   -0.00000091   -0.00040134
     atom   51 type  5   force =     0.00050663   -0.00012603   -0.00012821
     atom   52 type  5   force =     0.00015845   -0.00006652    0.00014830

     Total force =     0.004496     Total SCF correction =     0.000143


     Computing stress (Cartesian axis) and pressure

          total   stress  (Ry/bohr**3)                   (kbar)     P=      -66.40
  -0.00040490   0.00001743   0.00004139          -59.56        2.56        6.09
   0.00001743  -0.00050964  -0.00004281            2.56      -74.97       -6.30
   0.00004139  -0.00004281  -0.00043951            6.09       -6.30      -64.65

     Energy error            =      4.6E-05
     Gradient error          =      9.5E-04

     bfgs converged in  37 scf cycles and  36 bfgs steps
     (criteria: energy <  1.0E-04 Ry, force <  1.0E-03 Ry/Bohr)

     End of BFGS Geometry Optimization

     Final energy   =   -3598.3044675832 Ry

     File ./tmp_system1/system1.bfgs deleted, as requested
Begin final coordinates

ATOMIC_POSITIONS (angstrom)
Na            1.4574811060        8.2909717580        6.3645088068
Na            1.6018023169        8.1896447753        1.3752222781
Na            3.2159002924        6.5328604388        3.8496641600
Na           -0.0695031094        6.4890209021        8.9885967272
Na            3.1332615245        6.5431969926        9.0455957141
Na            3.2978757076        2.4538345612        6.3592298400
Na            3.3805144755        2.4434980074        1.1632982859
Na            6.5832791094        2.4976740979        1.2202972728
Na            5.0562948940        0.6957232420        3.8443851932
Na            4.9119746831        0.7970502247        8.8336727219
Li            0.0178449581        5.9062042625        3.5554412215
Li            6.4959380419        3.0804907375        6.6534527785
Fe            4.9486130271        5.9382247337        6.5327966581
Fe            4.9447565713        5.9398667837        1.3575915929
Fe            1.5651629729        3.0484702663        3.6760983419
Fe            1.5690204287        3.0468282163        8.8513034071
P             1.5679847792        5.2504467375        6.1535174262
P             1.6217157166        5.2070620547        1.0332697091
P             4.9457912208        3.7362482625        4.0553765738
P             4.8920602834        3.7796329453        9.1756242909
C             4.8418914117        8.3579701375        6.2011088978
C             4.8988997328        8.3627038087        0.9675073852
C             1.6718845883        0.6287248625        4.0077851022
C             1.6148762672        0.6239911913        9.2413866148
O             1.7117192079        8.3495775505        3.9656372183
O             1.5741411229        8.3465656142        9.2794730788
O             4.7895247501        7.7616490178        7.3706323255
O             4.8341094378        7.8227203360        2.1542667232
O             5.0378275377        7.5604286118        5.1897695270
O             5.0173275718        7.5037303835       -0.0092482559
O             0.4378768527        6.1502628820        6.7713993878
O             2.8897578197        6.0648855354        6.1774661714
O             0.4401512010        6.0492119371        1.6635149682
O             2.8818716929        6.1352609780        1.0697167190
O             1.2873809063        4.9225341288        4.6410038719
O             4.8767637430        5.0760641233        3.2571624312
O             1.3732368406        4.8688693943        9.9108074240
O             4.7182481776        5.0833500074        8.3601149585
O             1.6370122570        3.9106298767        6.9517325688
O             5.2263950937        4.0641608712        5.5678901281
O             1.7955278224        3.9033449926        1.8487800415
O             5.1405391594        4.1178246057        0.2980875760
O             3.6240181803        2.9218094646        4.0314278286
O             6.0758991473        2.8364321180        3.4374956122
O             3.6319043071        2.8514340220        9.1391782810
O             6.0736247990        2.9374820629        8.5453790318
O             1.4759484623        1.4262653882        5.0191254730
O             1.4964484282        1.4829646165       10.2181422559
O             1.7242512499        1.2250459822        2.8382616745
O             1.6796675622        1.1639736640        8.0546272768
O             4.8020567921        0.6371164495        6.2432567817
O             4.9396348771        0.6401293858        0.9294209212
End final coordinates



     Writing output data file ./tmp_system1/system1.save/

     init_run     :      9.62s CPU      9.86s WALL (       1 calls)
     electrons    :   2682.45s CPU   2714.02s WALL (      37 calls)
     update_pot   :    544.57s CPU    545.39s WALL (      36 calls)
     forces       :    326.63s CPU    328.15s WALL (      37 calls)
     stress       :    520.22s CPU    522.11s WALL (      37 calls)

     Called by init_run:
     wfcinit      :      1.10s CPU      1.11s WALL (       1 calls)
     potinit      :      2.99s CPU      3.01s WALL (       1 calls)
     hinit0       :      5.00s CPU      5.04s WALL (       1 calls)

     Called by electrons:
     c_bands      :   1923.37s CPU   1941.69s WALL (     357 calls)
     sum_band     :    325.92s CPU    333.85s WALL (     357 calls)
     v_of_rho     :     17.41s CPU     17.93s WALL (     388 calls)
     newd         :    217.68s CPU    221.34s WALL (     388 calls)
     PAW_pot      :    253.59s CPU    253.88s WALL (     424 calls)
     mix_rho      :      1.98s CPU      2.08s WALL (     357 calls)

     Called by c_bands:
     init_us_2    :      2.98s CPU      3.01s WALL (     751 calls)
     cegterg      :   1912.71s CPU   1930.71s WALL (     357 calls)

     Called by *egterg:
     cdiaghg      :    163.20s CPU    164.40s WALL (    1833 calls)
     h_psi        :    653.20s CPU    666.28s WALL (    1876 calls)
     s_psi        :    246.97s CPU    247.32s WALL (    1876 calls)
     g_psi        :      1.10s CPU      1.11s WALL (    1518 calls)

     Called by h_psi:
     h_psi:calbec :    277.33s CPU    278.23s WALL (    1876 calls)
     vloc_psi     :    154.32s CPU    166.30s WALL (    1876 calls)
     add_vuspsi   :    220.95s CPU    221.15s WALL (    1876 calls)

     General routines
     calbec       :    452.69s CPU    454.59s WALL (    2454 calls)
     fft          :    216.84s CPU    218.09s WALL (    5937 calls)
     ffts         :      0.59s CPU      0.65s WALL (     745 calls)
     fftw         :    170.28s CPU    183.44s WALL (  469782 calls)
     interpolate  :      0.90s CPU      0.99s WALL (     388 calls)

     Parallel routines
     fft_scatt_xy :     14.60s CPU     15.74s WALL (  476464 calls)
     fft_scatt_yz :    284.53s CPU    291.54s WALL (  476464 calls)

     PWSCF        :      1h 8m CPU      1h 9m WALL


   This run was terminated on:  18: 0:28  31Aug2025            

=------------------------------------------------------------------------------=
   JOB DONE.
=------------------------------------------------------------------------------=
