
     Program PWSCF v.6.7MaX starts on 31Aug2025 at 19:27:26 

     This program is part of the open-source Quantum ESPRESSO suite
     for quantum simulation of materials; please cite
         "P. Giannozzi et al., J. Phys.:Condens. Matter 21 395502 (2009);
         "P. Giannozzi et al., J. Phys.:Condens. Matter 29 465901 (2017);
          URL http://www.quantum-espresso.org", 
     in publications or presentations arising from this work. More details at
     http://www.quantum-espresso.org/quote

     Parallel version (MPI), running on    10 processors

     MPI processes distributed on     1 nodes
     R & G space division:  proc/nbgrp/npool/nimage =      10
     Waiting for input...
     Reading input from standard input

 %%%%%%%%%%%%%%%%%%%%%%%%%%%%%%%%%%%%%%%%%%%%%%%%%%%%%%%%%%%%%%%%%%%%%%%%%%%%%%
     Error in routine  read_namelists (1):
      bad line in namelist &control: "    smearing = 'gaussian'" (error could be in the previous line)
 %%%%%%%%%%%%%%%%%%%%%%%%%%%%%%%%%%%%%%%%%%%%%%%%%%%%%%%%%%%%%%%%%%%%%%%%%%%%%%

     stopping ...
--------------------------------------------------------------------------
MPI_ABORT was invoked on rank 0 in communicator MPI_COMM_WORLD
with errorcode 1.

NOTE: invoking MPI_ABORT causes Open MPI to kill all MPI processes.
You may or may not see output from other processes, depending on
exactly when Open MPI kills them.
--------------------------------------------------------------------------
[05170220cac9:45309] PMIX ERROR: UNREACHABLE in file ../../../src/server/pmix_server.c at line 2795
[05170220cac9:45309] PMIX ERROR: UNREACHABLE in file ../../../src/server/pmix_server.c at line 2795
[05170220cac9:45309] PMIX ERROR: UNREACHABLE in file ../../../src/server/pmix_server.c at line 2795
[05170220cac9:45309] 4 more processes have sent help message help-mpi-api.txt / mpi-abort
[05170220cac9:45309] Set MCA parameter "orte_base_help_aggregate" to 0 to see all help / error messages
